<?xml version="1.0"?>
<VTKFile type="UnstructuredGrid" version="0.1" byte_order="LittleEndian">
  <UnstructuredGrid>
    <Piece NumberOfPoints="87" NumberOfCells="170">
      <Points>
        <DataArray type="Float32" NumberOfComponents="3" format="ascii">
          0.015000 -0.000000 -0.005000 0.015000 -0.000000 0.005000 -0.007860 0.012776 0.001796 -0.007176 0.013172 0.003676 0.007176 0.013172 -0.003676 0.007860 0.012776 -0.001796 -0.007860 -0.012776 -0.001796 -0.007176 -0.013172 -0.003676 0.007176 -0.013172 0.003676 0.007860 -0.012776 0.001796 -0.007176 0.100000 0.003676 -0.007860 0.100000 0.001796 0.007860 0.100000 -0.001796 0.007176 0.100000 -0.003676 -0.007860 -0.100000 -0.001796 -0.007176 -0.100000 -0.003676 0.007860 -0.100000 0.001796 0.007176 -0.100000 0.003676 0.009352 0.011727 0.005000 -0.003338 0.014624 0.005000 -0.013515 0.006508 0.005000 -0.013515 -0.006508 0.005000 -0.003338 -0.014624 0.005000 0.009352 -0.011727 0.005000 0.009352 0.011727 -0.005000 -0.003338 0.014624 -0.005000 -0.013515 0.006508 -0.005000 -0.013515 -0.006508 -0.005000 -0.003338 -0.014624 -0.005000 0.009352 -0.011727 -0.005000 -0.007176 0.030538 0.003676 -0.007176 0.047903 0.003676 -0.007176 0.065269 0.003676 -0.007176 0.082634 0.003676 -0.007860 0.030221 0.001796 -0.007860 0.047666 0.001796 -0.007860 0.065110 0.001796 -0.007860 0.082555 0.001796 0.007860 0.030221 -0.001796 0.007860 0.047666 -0.001796 0.007860 0.065110 -0.001796 0.007860 0.082555 -0.001796 0.007176 0.030538 -0.003676 0.007176 0.047903 -0.003676 0.007176 0.065269 -0.003676 0.007176 0.082634 -0.003676 -0.007860 -0.082555 -0.001796 -0.007860 -0.065110 -0.001796 -0.007860 -0.047666 -0.001796 -0.007860 -0.030221 -0.001796 -0.007176 -0.082634 -0.003676 -0.007176 -0.065269 -0.003676 -0.007176 -0.047903 -0.003676 -0.007176 -0.030538 -0.003676 0.007860 -0.082555 0.001796 0.007860 -0.065110 0.001796 0.007860 -0.047666 0.001796 0.007860 -0.030221 0.001796 0.007176 -0.082634 0.003676 0.007176 -0.065269 0.003676 0.007176 -0.047903 0.003676 0.007176 -0.030538 0.003676 0.012817 -0.007793 0.000374 0.012817 0.007793 -0.000374 -0.015000 0.000000 0.000007 -0.000000 -0.000000 -0.005000 -0.000000 -0.000000 0.005000 0.000342 0.091297 0.000940 0.000342 0.073892 0.000940 0.000342 0.056487 0.000940 0.000342 0.039082 0.000940 0.000342 0.021677 0.000940 -0.000342 0.091297 -0.000940 -0.000342 0.073892 -0.000940 -0.000342 0.056487 -0.000940 -0.000342 0.039082 -0.000940 -0.000342 0.021677 -0.000940 0.000342 -0.091297 -0.000940 0.000342 -0.073892 -0.000940 0.000342 -0.056487 -0.000940 0.000342 -0.039082 -0.000940 0.000342 -0.021677 -0.000940 -0.000342 -0.091297 0.000940 -0.000342 -0.073892 0.000940 -0.000342 -0.056487 0.000940 -0.000342 -0.039082 0.000940 -0.000342 -0.021677 0.000940
        </DataArray>
      </Points>
      <Cells>
        <DataArray type="Int32" Name="connectivity" format="ascii">
          3 20 19 7 27 28 3 19 5 7 28 9 4 24 25 23 62 1 24 63 0 0 62 29 1 63 18 20 64 21 27 64 26 2 26 20 27 6 21 29 62 9 18 63 5 9 62 23 5 63 24 27 7 6 3 2 20 26 64 20 21 64 27 1 62 0 0 63 1 24 4 5 8 9 23 22 8 23 2 4 25 2 25 26 5 19 18 6 8 22 21 6 22 9 28 29 25 24 65 26 25 65 24 0 65 27 26 65 0 29 65 28 27 65 29 28 65 19 66 18 20 66 19 18 66 1 21 66 20 1 66 23 22 66 21 23 66 22 34 2 3 30 34 3 11 33 10 11 37 33 31 35 30 35 34 30 31 32 36 35 31 36 33 37 32 32 37 36 38 71 5 39 70 38 40 69 39 41 68 40 12 67 41 33 67 10 32 68 33 31 69 32 30 70 31 3 71 30 30 71 38 31 70 39 32 69 40 33 68 41 10 67 12 41 67 33 40 68 32 39 69 31 38 70 30 5 71 3 38 5 4 42 38 4 13 12 45 45 12 41 39 38 42 40 39 43 43 39 42 40 44 41 43 44 40 41 44 45 2 34 76 34 35 75 35 36 74 36 37 73 37 11 72 13 45 72 45 44 73 44 43 74 43 42 75 42 4 76 34 42 76 35 43 75 36 44 74 37 45 73 11 13 72 45 37 72 44 36 73 43 35 74 42 34 75 4 2 76 7 49 6 49 7 53 50 15 14 46 50 14 47 51 46 51 50 46 48 52 47 52 51 47 48 49 53 52 48 53 9 57 81 57 56 80 56 55 79 55 54 78 54 16 77 15 50 77 50 51 78 51 52 79 52 53 80 53 7 81 57 53 81 56 52 80 55 51 79 54 50 78 16 15 77 50 54 77 51 55 78 52 56 79 53 57 80 7 9 81 9 8 57 57 8 61 58 17 16 54 58 16 55 59 54 59 58 54 56 60 55 55 60 59 61 56 57 61 60 56 49 86 6 48 85 49 47 84 48 46 83 47 14 82 46 58 82 17 59 83 58 60 84 59 61 85 60 8 86 61 61 86 49 60 85 48 59 84 47 58 83 46 17 82 14 46 82 58 47 83 59 48 84 60 49 85 61 6 86 8 12 11 10 13 11 12 17 14 15 16 17 15
        </DataArray>
        <DataArray type="Int32" Name="offsets" format="ascii">
          3 6 9 12 15 18 21 24 27 30 33 36 39 42 45 48 51 54 57 60 63 66 69 72 75 78 81 84 87 90 93 96 99 102 105 108 111 114 117 120 123 126 129 132 135 138 141 144 147 150 153 156 159 162 165 168 171 174 177 180 183 186 189 192 195 198 201 204 207 210 213 216 219 222 225 228 231 234 237 240 243 246 249 252 255 258 261 264 267 270 273 276 279 282 285 288 291 294 297 300 303 306 309 312 315 318 321 324 327 330 333 336 339 342 345 348 351 354 357 360 363 366 369 372 375 378 381 384 387 390 393 396 399 402 405 408 411 414 417 420 423 426 429 432 435 438 441 444 447 450 453 456 459 462 465 468 471 474 477 480 483 486 489 492 495 498 501 504 507 510
        </DataArray>
        <DataArray type="UInt8" Name="types" format="ascii">
          5 5 5 5 5 5 5 5 5 5 5 5 5 5 5 5 5 5 5 5 5 5 5 5 5 5 5 5 5 5 5 5 5 5 5 5 5 5 5 5 5 5 5 5 5 5 5 5 5 5 5 5 5 5 5 5 5 5 5 5 5 5 5 5 5 5 5 5 5 5 5 5 5 5 5 5 5 5 5 5 5 5 5 5 5 5 5 5 5 5 5 5 5 5 5 5 5 5 5 5 5 5 5 5 5 5 5 5 5 5 5 5 5 5 5 5 5 5 5 5 5 5 5 5 5 5 5 5 5 5 5 5 5 5 5 5 5 5 5 5 5 5 5 5 5 5 5 5 5 5 5 5 5 5 5 5 5 5 5 5 5 5 5 5 5 5 5 5 5 5
        </DataArray>
      </Cells>
      <PointData>
        <DataArray type="Float32" Name="SurfacePressure" NumberOfComponents="1" format="ascii">
          101352.12 101352.12 101352.80 101352.78 101297.65 101297.67 101297.20 101297.22 101352.35 101352.33 102556.52 102557.80 100092.67 100093.91 100092.20 100093.48 102557.33 102556.09 101297.72 101352.66 101352.97 101297.03 101297.34 101352.28 101297.72 101352.66 101352.97 101297.03 101297.34 101352.28 101445.76 101612.63 101853.38 102168.01 101444.68 101611.13 101852.13 102167.69 101205.79 101039.34 100798.34 100482.78 101204.67 101037.80 100797.05 100482.42 100482.31 100797.87 101038.87 101205.32 100481.99 100796.62 101037.37 101204.24 102167.22 101851.66 101610.66 101444.21 102167.58 101852.95 101612.20 101445.33 101352.18 101297.82 101296.99 101325.00 101325.00 100303.93 100656.14 100934.12 101137.89 101267.43 102346.09 101993.88 101715.90 101512.13 101382.59 102346.07 101993.86 101715.88 101512.11 101382.57 100303.91 100656.12 100934.10 101137.87 101267.41
        </DataArray>
        <DataArray type="Float32" Name="Velocity" NumberOfComponents="3" format="ascii">
          0.0000 7.4389 -5.0000 0.0000 7.4389 -5.0000 -6.3880 -3.9909 -5.0000 -6.5862 -3.6489 -5.0000 -6.5862 3.5266 -5.0000 -6.3880 3.8687 -5.0000 6.3880 -3.9909 -5.0000 6.5862 -3.6489 -5.0000 6.5862 3.5266 -5.0000 6.3880 3.8687 -5.0000 -50.0000 -3.6489 -5.0000 -50.0000 -3.9909 -5.0000 -50.0000 3.8687 -5.0000 -50.0000 3.5266 -5.0000 50.0000 -3.9909 -5.0000 50.0000 -3.6489 -5.0000 50.0000 3.8687 -5.0000 50.0000 3.5266 -5.0000 -5.8637 4.6151 -5.0000 -7.3120 -1.7300 -5.0000 -3.2541 -6.8184 -5.0000 3.2541 -6.8184 -5.0000 7.3120 -1.7300 -5.0000 5.8637 4.6151 -5.0000 -5.8637 4.6151 -5.0000 -7.3120 -1.7300 -5.0000 -3.2541 -6.8184 -5.0000 3.2541 -6.8184 -5.0000 7.3120 -1.7300 -5.0000 5.8637 4.6151 -5.0000 -15.2690 -3.6489 -5.0000 -23.9517 -3.6489 -5.0000 -32.6345 -3.6489 -5.0000 -41.3172 -3.6489 -5.0000 -15.1104 -3.9909 -5.0000 -23.8328 -3.9909 -5.0000 -32.5552 -3.9909 -5.0000 -41.2776 -3.9909 -5.0000 -15.1104 3.8687 -5.0000 -23.8328 3.8687 -5.0000 -32.5552 3.8687 -5.0000 -41.2776 3.8687 -5.0000 -15.2690 3.5266 -5.0000 -23.9517 3.5266 -5.0000 -32.6345 3.5266 -5.0000 -41.3172 3.5266 -5.0000 41.2776 -3.9909 -5.0000 32.5552 -3.9909 -5.0000 23.8328 -3.9909 -5.0000 15.1104 -3.9909 -5.0000 41.3172 -3.6489 -5.0000 32.6345 -3.6489 -5.0000 23.9517 -3.6489 -5.0000 15.2690 -3.6489 -5.0000 41.2776 3.8687 -5.0000 32.5552 3.8687 -5.0000 23.8328 3.8687 -5.0000 15.1104 3.8687 -5.0000 41.3172 3.5266 -5.0000 32.6345 3.5266 -5.0000 23.9517 3.5266 -5.0000 15.2690 3.5266 -5.0000 3.8966 6.3472 -5.0000 -3.8966 6.3472 -5.0000 0.0000 -7.5611 -5.0000 0.0000 -0.0611 -5.0000 0.0000 -0.0611 -5.0000 -45.6487 0.1099 -5.0000 -36.9461 0.1099 -5.0000 -28.2436 0.1099 -5.0000 -19.5410 0.1099 -5.0000 -10.8384 0.1099 -5.0000 -45.6487 -0.2321 -5.0000 -36.9461 -0.2321 -5.0000 -28.2436 -0.2321 -5.0000 -19.5410 -0.2321 -5.0000 -10.8384 -0.2321 -5.0000 45.6487 0.1099 -5.0000 36.9461 0.1099 -5.0000 28.2436 0.1099 -5.0000 19.5410 0.1099 -5.0000 10.8384 0.1099 -5.0000 45.6487 -0.2321 -5.0000 36.9461 -0.2321 -5.0000 28.2436 -0.2321 -5.0000 19.5410 -0.2321 -5.0000 10.8384 -0.2321 -5.0000
        </DataArray>
      </PointData>
    </Piece>
  </UnstructuredGrid>
</VTKFile>
