<?xml version="1.0"?>
<VTKFile type="UnstructuredGrid" version="0.1" byte_order="LittleEndian">
  <UnstructuredGrid>
    <Piece NumberOfPoints="87" NumberOfCells="176">
      <Points>
        <DataArray type="Float32" NumberOfComponents="3" format="ascii">
          0.015000 -0.000000 -0.005000 0.015000 -0.000000 0.005000 -0.007860 0.012776 0.001796 -0.007176 0.013172 0.003676 0.007176 0.013172 -0.003676 0.007860 0.012776 -0.001796 -0.007860 -0.012776 -0.001796 -0.007176 -0.013172 -0.003676 0.007176 -0.013172 0.003676 0.007860 -0.012776 0.001796 -0.007176 0.100000 0.003676 -0.007860 0.100000 0.001796 0.007860 0.100000 -0.001796 0.007176 0.100000 -0.003676 -0.007860 -0.100000 -0.001796 -0.007176 -0.100000 -0.003676 0.007860 -0.100000 0.001796 0.007176 -0.100000 0.003676 0.009352 0.011727 0.005000 -0.003338 0.014624 0.005000 -0.013515 0.006508 0.005000 -0.013515 -0.006508 0.005000 -0.003338 -0.014624 0.005000 0.009352 -0.011727 0.005000 0.009352 0.011727 -0.005000 -0.003338 0.014624 -0.005000 -0.013515 0.006508 -0.005000 -0.013515 -0.006508 -0.005000 -0.003338 -0.014624 -0.005000 0.009352 -0.011727 -0.005000 -0.007176 0.030538 0.003676 -0.007176 0.047903 0.003676 -0.007176 0.065269 0.003676 -0.007176 0.082634 0.003676 -0.007860 0.030221 0.001796 -0.007860 0.047666 0.001796 -0.007860 0.065110 0.001796 -0.007860 0.082555 0.001796 0.007860 0.030221 -0.001796 0.007860 0.047666 -0.001796 0.007860 0.065110 -0.001796 0.007860 0.082555 -0.001796 0.007176 0.030538 -0.003676 0.007176 0.047903 -0.003676 0.007176 0.065269 -0.003676 0.007176 0.082634 -0.003676 -0.007860 -0.082555 -0.001796 -0.007860 -0.065110 -0.001796 -0.007860 -0.047666 -0.001796 -0.007860 -0.030221 -0.001796 -0.007176 -0.082634 -0.003676 -0.007176 -0.065269 -0.003676 -0.007176 -0.047903 -0.003676 -0.007176 -0.030538 -0.003676 0.007860 -0.082555 0.001796 0.007860 -0.065110 0.001796 0.007860 -0.047666 0.001796 0.007860 -0.030221 0.001796 0.007176 -0.082634 0.003676 0.007176 -0.065269 0.003676 0.007176 -0.047903 0.003676 0.007176 -0.030538 0.003676 0.012817 -0.007793 0.000374 0.012817 0.007793 -0.000374 -0.015000 0.000000 0.000007 -0.000000 -0.000000 -0.005000 -0.000000 -0.000000 0.005000 0.000342 0.091297 0.000940 0.000342 0.073892 0.000940 0.000342 0.056487 0.000940 0.000342 0.039082 0.000940 0.000342 0.021677 0.000940 -0.000342 0.091297 -0.000940 -0.000342 0.073892 -0.000940 -0.000342 0.056487 -0.000940 -0.000342 0.039082 -0.000940 -0.000342 0.021677 -0.000940 0.000342 -0.091297 -0.000940 0.000342 -0.073892 -0.000940 0.000342 -0.056487 -0.000940 0.000342 -0.039082 -0.000940 0.000342 -0.021677 -0.000940 -0.000342 -0.091297 0.000940 -0.000342 -0.073892 0.000940 -0.000342 -0.056487 0.000940 -0.000342 -0.039082 0.000940 -0.000342 -0.021677 0.000940
        </DataArray>
      </Points>
      <Cells>
        <DataArray type="Int32" Name="connectivity" format="ascii">
          3 19 20 66 7 28 27 65 20 64 26 66 27 65 64 21 64 65 26 66 21 65 64 66 66 65 0 62 66 0 1 62 0 65 66 63 66 1 0 63 66 22 8 23 65 26 27 64 64 20 21 66 62 65 0 29 18 1 66 63 1 66 62 23 0 65 63 24 6 8 66 22 82 15 50 77 12 72 45 67 16 82 58 77 66 9 65 62 32 73 37 68 41 68 73 44 83 59 54 78 83 46 51 78 84 60 55 79 69 74 40 43 84 47 52 79 31 74 36 69 75 35 30 70 39 70 75 42 85 48 53 80 56 85 61 80 71 4 76 38 34 3 76 71 86 49 7 81 57 86 8 81 9 65 62 29 18 66 5 63 21 65 6 27 65 21 6 66 26 2 20 66 2 26 65 66 62 66 9 23 65 9 28 29 66 5 19 18 15 82 16 77 59 83 51 78 68 32 73 44 69 31 74 43 60 84 52 79 46 83 54 78 68 73 37 41 67 33 72 45 58 82 50 77 70 30 75 42 85 53 61 80 47 84 55 79 74 36 69 40 8 7 81 86 76 3 4 71 48 85 56 80 75 35 70 39 71 76 34 38 57 49 86 81 2 3 76 34 49 7 6 86 5 4 71 38 8 9 57 81 58 17 82 16 12 72 13 45 15 82 50 14 58 54 16 77 12 41 67 45 46 14 50 82 11 37 72 33 41 40 68 44 55 54 59 78 37 36 73 32 47 46 51 83 53 49 48 85 57 56 61 80 75 35 34 30 70 39 38 42 36 35 74 31 40 39 69 43 47 52 48 84 55 60 56 79 6 21 22 66 65 26 2 25 37 33 32 68 46 50 51 78 45 41 73 44 59 58 83 54 47 51 52 79 84 60 59 55 36 32 31 69 44 40 74 43 61 86 8 57 4 76 38 42 3 30 71 34 7 53 81 49 75 39 42 43 30 35 31 70 61 60 85 56 52 53 48 80 15 17 82 14 17 15 82 16 31 35 74 43 84 52 48 60 56 60 52 79 31 69 39 43 83 51 47 59 32 36 73 44 55 59 51 78 32 68 40 44 11 12 72 13 30 34 75 42 53 49 85 61 30 70 38 42 57 61 53 80 7 8 6 86 3 76 4 2 7 8 81 9 3 4 71 5 47 84 59 55 74 36 40 44 55 51 47 79 36 32 69 40 48 85 60 56 75 35 39 43 70 35 31 39 56 52 48 80 46 83 58 54 73 37 41 45 54 50 46 78 37 33 68 41 33 37 72 45 82 50 46 58 33 67 41 45 54 58 50 77 38 76 34 42 61 49 86 57 34 30 71 38 53 49 57 81 27 6 7 65 2 3 20 66 66 8 9 23 34 30 38 42 53 49 61 57 60 52 48 56 35 31 39 43 59 51 47 55 36 32 40 44 58 50 46 54 37 33 41 45 67 12 11 10 11 12 67 72 11 33 67 10 67 33 11 72 7 65 9 28 3 66 5 19 3 66 4 5 3 4 66 2 63 24 66 5 63 66 24 65 4 66 24 5 24 25 66 4 24 66 25 65 2 66 25 4 2 25 66 65 6 8 65 66 6 65 8 7 9 65 8 66 9 8 65 7
        </DataArray>
        <DataArray type="Int32" Name="offsets" format="ascii">
          4 8 12 16 20 24 28 32 36 40 44 48 52 56 60 64 68 72 76 80 84 88 92 96 100 104 108 112 116 120 124 128 132 136 140 144 148 152 156 160 164 168 172 176 180 184 188 192 196 200 204 208 212 216 220 224 228 232 236 240 244 248 252 256 260 264 268 272 276 280 284 288 292 296 300 304 308 312 316 320 324 328 332 336 340 344 348 352 356 360 364 368 372 376 380 384 388 392 396 400 404 408 412 416 420 424 428 432 436 440 444 448 452 456 460 464 468 472 476 480 484 488 492 496 500 504 508 512 516 520 524 528 532 536 540 544 548 552 556 560 564 568 572 576 580 584 588 592 596 600 604 608 612 616 620 624 628 632 636 640 644 648 652 656 660 664 668 672 676 680 684 688 692 696 700 704
        </DataArray>
        <DataArray type="UInt8" Name="types" format="ascii">
          10 10 10 10 10 10 10 10 10 10 10 10 10 10 10 10 10 10 10 10 10 10 10 10 10 10 10 10 10 10 10 10 10 10 10 10 10 10 10 10 10 10 10 10 10 10 10 10 10 10 10 10 10 10 10 10 10 10 10 10 10 10 10 10 10 10 10 10 10 10 10 10 10 10 10 10 10 10 10 10 10 10 10 10 10 10 10 10 10 10 10 10 10 10 10 10 10 10 10 10 10 10 10 10 10 10 10 10 10 10 10 10 10 10 10 10 10 10 10 10 10 10 10 10 10 10 10 10 10 10 10 10 10 10 10 10 10 10 10 10 10 10 10 10 10 10 10 10 10 10 10 10 10 10 10 10 10 10 10 10 10 10 10 10 10 10 10 10 10 10 10 10 10 10 10 10
        </DataArray>
      </Cells>
      <PointData>
        <DataArray type="Float32" Name="vonMisesStress" NumberOfComponents="1" format="ascii">
          3774663.36 3774663.36 1393047.96 1471445.35 2117233.43 2195625.37 1393047.96 1471445.35 2117233.43 2195625.37 13097217.11 13187288.23 10810420.69 10888224.13 13187288.23 13097217.11 10810420.69 10888224.13 2409081.14 1726711.76 254432.46 254432.46 1726711.76 2409081.14 2409081.14 1726711.76 254432.46 254432.46 1726711.76 2409081.14 5065808.78 5693887.63 6579872.05 10446733.28 5143872.98 5704510.86 6468355.23 10474299.96 2326694.18 5852990.45 9221708.27 9365462.05 2439082.62 5894382.03 9129122.80 9397081.48 10474299.96 6468355.23 5704510.86 5143872.98 10446733.28 6579872.05 5693887.63 5065808.78 9365462.05 9221708.27 5852990.45 2326694.18 9397081.48 9129122.80 5894382.03 2439082.62 3145542.56 3145542.56 0.00 14620.07 14620.07 10855553.76 8869652.62 6812095.20 4625780.16 2554662.00 10986534.60 8808482.01 6702110.79 4724555.79 2632003.65 10855553.76 8869652.62 6812095.20 4625780.16 2554662.00 10986534.60 8808482.01 6702110.79 4724555.79 2632003.65
        </DataArray>
        <DataArray type="Float32" Name="DisplacementZ" NumberOfComponents="1" format="ascii">
          0.000110 0.000110 0.000113 0.000113 0.000111 0.000111 0.000113 0.000113 0.000111 0.000111 0.004995 0.005000 0.004998 0.004993 0.005000 0.004995 0.004998 0.004993 0.000111 0.000112 0.000113 0.000113 0.000112 0.000111 0.000111 0.000112 0.000113 0.000113 0.000112 0.000111 0.000490 0.001167 0.002143 0.003419 0.000485 0.001160 0.002138 0.003418 0.000484 0.001159 0.002136 0.003416 0.000488 0.001165 0.002141 0.003417 0.003418 0.002138 0.001160 0.000485 0.003419 0.002143 0.001167 0.000490 0.003416 0.002136 0.001159 0.000484 0.003417 0.002141 0.001165 0.000488 0.000110 0.000110 0.000114 0.000000 0.000000 0.004141 0.002713 0.001585 0.000759 0.000233 0.004141 0.002713 0.001585 0.000759 0.000234 0.004141 0.002713 0.001585 0.000759 0.000233 0.004141 0.002713 0.001585 0.000759 0.000234
        </DataArray>
      </PointData>
    </Piece>
  </UnstructuredGrid>
</VTKFile>
