<?xml version="1.0"?>
<VTKFile type="UnstructuredGrid" version="0.1" byte_order="LittleEndian">
  <UnstructuredGrid>
    <Piece NumberOfPoints="6486" NumberOfCells="12976">
      <Points>
        <DataArray type="Float32" NumberOfComponents="3" format="ascii">
          8.020285 3.125000 0.000000 7.479715 3.125000 0.000000 8.145285 3.125000 0.125000 7.354715 3.125000 0.125000 7.354715 3.125000 1.875000 8.145285 3.125000 1.875000 7.402970 2.935738 0.599931 7.402970 2.935738 1.349931 7.355156 3.143667 0.349931 7.386529 3.280366 0.349931 7.506453 3.436344 0.599931 7.506453 3.436344 1.349931 7.386529 3.280366 1.599931 7.355156 3.143667 1.599931 7.969924 3.125000 0.000000 7.479715 3.125000 2.000000 8.020285 3.125000 2.000000 7.530076 3.125000 2.000000 7.969924 3.125000 2.000000 4.500000 3.250000 0.000000 3.250000 3.250000 0.000000 4.625000 3.250000 0.125000 3.125000 3.250000 0.125000 3.125000 3.250000 1.875000 4.625000 3.250000 1.875000 4.625000 3.250000 1.599931 4.624487 3.277722 1.599931 4.580226 3.505257 1.349931 4.580226 3.505257 0.599931 4.624487 3.277722 0.349931 4.625000 3.250000 0.349931 4.537703 2.898823 0.349931 4.273668 2.614733 0.599931 4.273668 2.614733 1.349931 4.537703 2.898823 1.599931 4.392234 3.250000 0.000000 3.250000 3.250000 2.000000 4.500000 3.250000 2.000000 3.357766 3.250000 2.000000 4.392234 3.250000 2.000000 7.324886 2.996813 1.349931 7.324886 2.996813 0.599931 7.370241 2.974347 0.599931 7.370241 2.974347 1.349931 7.230296 3.149570 0.474931 7.318585 3.145396 0.438319 7.318585 3.145396 1.511542 7.230296 3.149570 1.474931 7.352863 3.294756 0.438319 7.271589 3.329497 0.474931 7.271589 3.329497 1.474931 7.352863 3.294756 1.511542 7.380960 3.419582 0.599931 7.445985 3.410899 0.599931 7.445985 3.410899 1.349931 7.380960 3.419582 1.349931 4.749402 3.282342 0.474931 4.670778 3.425748 0.599931 4.750000 3.250000 0.474931 4.648153 2.840294 0.474931 4.322239 2.632571 0.599931 4.322239 2.632571 1.349931 4.297020 2.626193 1.349931 4.297020 2.626193 0.599931 4.648153 2.840294 1.474931 4.570053 2.881680 1.511542 4.570053 2.881680 0.438319 4.661074 3.279075 1.511542 4.749402 3.282342 1.474931 4.750000 3.250000 1.474931 4.661074 3.279075 0.438319 4.670778 3.425748 1.349931 4.615288 3.453870 1.349931 4.615288 3.453870 0.599931 8.009336 3.201148 0.000000 7.977378 3.271127 0.000000 7.926999 3.329268 0.000000 7.862280 3.370860 0.000000 7.788466 3.392534 0.000000 7.711534 3.392534 0.000000 7.637720 3.370860 0.000000 7.573001 3.329268 0.000000 7.522622 3.271127 0.000000 7.490664 3.201148 0.000000 7.490664 3.048852 0.000000 7.522622 2.978873 0.000000 7.573001 2.920732 0.000000 7.637720 2.879140 0.000000 7.711534 2.857466 0.000000 7.788466 2.857466 0.000000 7.862280 2.879140 0.000000 7.926999 2.920732 0.000000 7.977378 2.978873 0.000000 8.009336 3.048852 0.000000 8.082785 3.125000 0.016747 8.128538 3.125000 0.062500 8.137689 3.047884 0.125000 8.115195 2.973731 0.125000 8.078667 2.905392 0.125000 8.029508 2.845492 0.125000 7.969608 2.796333 0.125000 7.901269 2.759805 0.125000 7.827116 2.737311 0.125000 7.750000 2.729715 0.125000 7.672884 2.737311 0.125000 7.598731 2.759805 0.125000 7.530392 2.796333 0.125000 7.470492 2.845492 0.125000 7.421333 2.905392 0.125000 7.384805 2.973731 0.125000 7.362311 3.047884 0.125000 7.362311 3.202116 0.125000 7.384805 3.276269 0.125000 7.421333 3.344608 0.125000 7.470492 3.404508 0.125000 7.530392 3.453667 0.125000 7.598731 3.490195 0.125000 7.672884 3.512689 0.125000 7.750000 3.520285 0.125000 7.827116 3.512689 0.125000 7.901269 3.490195 0.125000 7.969608 3.453667 0.125000 8.029508 3.404508 0.125000 8.078667 3.344608 0.125000 8.115195 3.276269 0.125000 8.137689 3.202116 0.125000 7.362311 3.047884 1.875000 7.384805 2.973731 1.875000 7.421333 2.905392 1.875000 7.470492 2.845492 1.875000 7.530392 2.796333 1.875000 7.598731 2.759805 1.875000 7.672884 2.737311 1.875000 7.750000 2.729715 1.875000 7.827116 2.737311 1.875000 7.901269 2.759805 1.875000 7.969608 2.796333 1.875000 8.029508 2.845492 1.875000 8.078667 2.905392 1.875000 8.115195 2.973731 1.875000 8.137689 3.047884 1.875000 8.137689 3.202116 1.875000 8.115195 3.276269 1.875000 8.078667 3.344608 1.875000 8.029508 3.404508 1.875000 7.969608 3.453667 1.875000 7.901269 3.490195 1.875000 7.827116 3.512689 1.875000 7.750000 3.520285 1.875000 7.672884 3.512689 1.875000 7.598731 3.490195 1.875000 7.530392 3.453667 1.875000 7.470492 3.404508 1.875000 7.421333 3.344608 1.875000 7.384805 3.276269 1.875000 7.362311 3.202116 1.875000 8.145285 3.125000 0.204545 8.145285 3.125000 0.284091 8.145285 3.125000 0.363636 8.145285 3.125000 0.443182 8.145285 3.125000 0.522727 8.145285 3.125000 0.602273 8.145285 3.125000 0.681818 8.145285 3.125000 0.761364 8.145285 3.125000 0.840909 8.145285 3.125000 0.920455 8.145285 3.125000 1.000000 8.145285 3.125000 1.079545 8.145285 3.125000 1.159091 8.145285 3.125000 1.238636 8.145285 3.125000 1.318182 8.145285 3.125000 1.397727 8.145285 3.125000 1.477273 8.145285 3.125000 1.556818 8.145285 3.125000 1.636364 8.145285 3.125000 1.715909 8.145285 3.125000 1.795455 7.402970 2.935738 0.674931 7.402970 2.935738 0.749931 7.402970 2.935738 0.824931 7.402970 2.935738 0.899931 7.402970 2.935738 0.974931 7.402970 2.935738 1.049931 7.402970 2.935738 1.124931 7.402970 2.935738 1.199931 7.402970 2.935738 1.274931 7.358054 3.073751 0.366126 7.370164 3.015605 0.406984 7.385338 2.972473 0.462876 7.397952 2.945248 0.528562 7.364731 3.213419 0.349931 7.499732 3.430965 0.530295 7.480759 3.414406 0.464814 7.452212 3.384936 0.407958 7.418403 3.340105 0.366261 7.506453 3.436344 1.274931 7.506453 3.436344 1.199931 7.506453 3.436344 1.124931 7.506453 3.436344 1.049931 7.506453 3.436344 0.974931 7.506453 3.436344 0.899931 7.506453 3.436344 0.824931 7.506453 3.436344 0.749931 7.506453 3.436344 0.674931 7.418403 3.340104 1.583600 7.452212 3.384937 1.541904 7.480758 3.414405 1.485047 7.499732 3.430966 1.419567 7.364731 3.213419 1.599931 7.397951 2.945248 1.421300 7.385338 2.972473 1.486986 7.370164 3.015605 1.542878 7.358054 3.073752 1.583735 7.956661 3.200218 0.000000 7.918471 3.266364 0.000000 7.859962 3.315460 0.000000 7.788189 3.341583 0.000000 7.711811 3.341583 0.000000 7.640038 3.315460 0.000000 7.581529 3.266364 0.000000 7.543339 3.200218 0.000000 7.530076 3.125000 0.000000 7.543339 3.049782 0.000000 7.581529 2.983636 0.000000 7.640038 2.934540 0.000000 7.711811 2.908417 0.000000 7.788189 2.908417 0.000000 7.859962 2.934540 0.000000 7.918471 2.983636 0.000000 7.956661 3.049782 0.000000 7.490664 3.201148 2.000000 7.522622 3.271127 2.000000 7.573001 3.329268 2.000000 7.637720 3.370860 2.000000 7.711534 3.392534 2.000000 7.788466 3.392534 2.000000 7.862280 3.370860 2.000000 7.926999 3.329268 2.000000 7.977378 3.271127 2.000000 8.009336 3.201148 2.000000 8.009336 3.048852 2.000000 7.977378 2.978873 2.000000 7.926999 2.920732 2.000000 7.862280 2.879140 2.000000 7.788466 2.857466 2.000000 7.711534 2.857466 2.000000 7.637720 2.879140 2.000000 7.573001 2.920732 2.000000 7.522622 2.978873 2.000000 7.490664 3.048852 2.000000 7.417215 3.125000 1.983253 7.371462 3.125000 1.937500 7.543339 3.200218 2.000000 7.581529 3.266364 2.000000 7.640038 3.315460 2.000000 7.711811 3.341583 2.000000 7.788189 3.341583 2.000000 7.859962 3.315460 2.000000 7.918471 3.266364 2.000000 7.956661 3.200218 2.000000 7.956661 3.049782 2.000000 7.918471 2.983636 2.000000 7.859962 2.934540 2.000000 7.788189 2.908417 2.000000 7.711811 2.908417 2.000000 7.640038 2.934540 2.000000 7.581529 2.983636 2.000000 7.543339 3.049782 2.000000 4.495072 3.328333 0.000000 4.480364 3.405431 0.000000 4.456110 3.480078 0.000000 4.422692 3.551096 0.000000 4.380636 3.617366 0.000000 4.330605 3.677842 0.000000 4.273390 3.731571 0.000000 4.209892 3.777705 0.000000 4.141112 3.815517 0.000000 4.068136 3.844410 0.000000 3.992113 3.863930 0.000000 3.914244 3.873767 0.000000 3.835756 3.873767 0.000000 3.757887 3.863930 0.000000 3.681864 3.844410 0.000000 3.608888 3.815517 0.000000 3.540108 3.777705 0.000000 3.476610 3.731571 0.000000 3.419395 3.677842 0.000000 3.369364 3.617366 0.000000 3.327308 3.551096 0.000000 3.293890 3.480078 0.000000 3.269636 3.405431 0.000000 3.254928 3.328333 0.000000 3.254928 3.171667 0.000000 3.269636 3.094569 0.000000 3.293890 3.019922 0.000000 3.327308 2.948904 0.000000 3.369364 2.882634 0.000000 3.419395 2.822158 0.000000 3.476610 2.768429 0.000000 3.540108 2.722295 0.000000 3.608888 2.684483 0.000000 3.681864 2.655590 0.000000 3.757887 2.636070 0.000000 3.835756 2.626233 0.000000 3.914244 2.626233 0.000000 3.992113 2.636070 0.000000 4.068136 2.655590 0.000000 4.141112 2.684483 0.000000 4.209892 2.722295 0.000000 4.273390 2.768429 0.000000 4.330605 2.822158 0.000000 4.380636 2.882634 0.000000 4.422692 2.948904 0.000000 4.456110 3.019922 0.000000 4.480364 3.094569 0.000000 4.495072 3.171667 0.000000 4.562500 3.250000 0.016747 4.608253 3.250000 0.062500 4.620891 3.171604 0.125000 4.608611 3.094066 0.125000 4.588292 3.018237 0.125000 4.560159 2.944948 0.125000 4.524519 2.875000 0.125000 4.481763 2.809161 0.125000 4.432359 2.748152 0.125000 4.376848 2.692641 0.125000 4.315839 2.643237 0.125000 4.250000 2.600481 0.125000 4.180052 2.564841 0.125000 4.106763 2.536708 0.125000 4.030934 2.516389 0.125000 3.953396 2.504109 0.125000 3.875000 2.500000 0.125000 3.796604 2.504109 0.125000 3.719066 2.516389 0.125000 3.643237 2.536708 0.125000 3.569948 2.564841 0.125000 3.500000 2.600481 0.125000 3.434161 2.643237 0.125000 3.373152 2.692641 0.125000 3.317641 2.748152 0.125000 3.268237 2.809161 0.125000 3.225481 2.875000 0.125000 3.189841 2.944948 0.125000 3.161708 3.018237 0.125000 3.141389 3.094066 0.125000 3.129109 3.171604 0.125000 3.129109 3.328396 0.125000 3.141389 3.405934 0.125000 3.161708 3.481763 0.125000 3.189841 3.555052 0.125000 3.225481 3.625000 0.125000 3.268237 3.690839 0.125000 3.317641 3.751848 0.125000 3.373152 3.807359 0.125000 3.434161 3.856763 0.125000 3.500000 3.899519 0.125000 3.569948 3.935159 0.125000 3.643237 3.963292 0.125000 3.719066 3.983611 0.125000 3.796604 
[...]
      <PointData>
        <DataArray type="Float32" Name="SurfacePressure" NumberOfComponents="1" format="ascii">
          103957.04 101362.72 105358.40 101530.89 101482.90 105310.41 103685.56 103888.25 102541.45 102543.87 104072.28 104274.97 102746.56 102744.14 103665.46 101314.73 103909.05 101512.03 103617.47 96993.72 96710.80 97665.70 97320.09 97272.10 97617.70 98993.05 98794.10 100214.23 100011.53 98591.41 98790.35 98577.37 99921.02 100123.72 98780.06 96956.81 96662.80 96945.72 96677.66 96908.81 104010.01 103807.31 103870.13 104072.82 102696.36 102841.91 103044.61 102899.05 102744.16 102703.55 102906.24 102946.86 103656.40 103964.07 104166.76 103859.09 99222.53 99681.67 99467.26 99255.01 99885.40 100088.09 100115.31 99912.62 99457.71 99379.09 99176.40 99237.18 99425.23 99669.95 99034.49 99884.37 99929.53 99726.84 103573.17 103575.45 103126.61 103085.25 102613.08 102246.65 102014.39 101435.16 101397.89 101085.47 101028.86 101476.12 101370.16 101989.65 102313.04 102679.47 103060.51 103061.61 103653.69 103516.57 104419.29 104937.35 104937.19 105069.38 104691.59 104518.61 103917.93 103852.98 103520.68 103106.13 102785.71 102408.70 101815.54 101834.33 101525.25 101541.72 101185.58 101245.60 101453.93 101616.87 101743.89 101876.34 102459.67 102739.00 103033.52 103473.97 103903.94 103978.72 104428.17 104783.22 104981.59 104997.22 101137.58 101493.73 101477.25 101786.33 101767.54 102360.70 102737.71 103058.14 103472.68 103804.98 103869.93 104470.62 104643.60 105021.38 104889.20 104949.22 104933.59 104735.22 104380.18 103930.73 103855.95 103425.97 102985.53 102691.00 102411.67 101828.34 101695.89 101568.88 101405.93 101197.61 105756.13 106153.86 106551.58 106949.31 107347.04 107744.77 108142.49 108540.22 108937.95 109335.67 109685.41 109287.68 108889.95 108492.22 108094.50 107696.77 107299.04 106901.31 106503.59 106105.86 105708.13 104060.56 104435.56 104810.56 105185.56 105560.56 105388.25 105013.25 104638.25 104263.25 102415.61 102900.61 103221.91 103349.94 102483.76 103700.17 103389.16 103261.19 102767.75 104649.97 105024.97 105399.97 105774.97 105947.28 105572.28 105197.28 104822.28 104447.28 102970.44 103463.87 103591.86 103902.87 102686.46 103552.64 103424.61 103103.31 102618.31 103263.99 103290.05 102684.11 102523.66 102159.86 101635.42 101680.59 101286.71 101560.03 101233.52 101745.36 101626.44 102069.49 102433.29 102675.13 103354.82 103210.80 101037.47 101349.89 101387.16 101966.39 102198.66 102565.08 103037.25 103078.61 103527.46 103525.18 103468.57 103605.69 103013.61 103012.51 102631.47 102265.05 101941.65 101322.16 101428.13 100980.87 101164.36 101228.99 101238.71 101632.60 101587.43 102111.87 102475.67 102636.12 103242.05 103215.99 103162.80 103306.82 102627.13 102385.30 102021.50 101578.44 101697.37 101185.52 96683.31 96767.60 96912.01 96591.19 96948.95 96556.86 96854.57 96729.05 96490.02 96681.67 96821.74 96830.23 96813.17 96770.78 96597.42 96373.53 96581.81 96678.55 96354.52 96723.27 96345.60 96650.41 96494.26 96402.80 96347.75 96572.66 96581.68 96393.41 96686.85 96398.88 96610.15 96656.52 96373.41 96519.36 96718.94 96795.42 96812.48 96769.90 96603.61 96489.90 96803.76 96786.17 96601.21 96912.54 96639.00 96843.29 96846.00 96628.26 97100.36 97346.63 97300.72 97513.67 97532.21 97285.84 97622.69 97218.31 97593.43 97216.12 97419.56 97471.77 97145.92 97179.07 97352.10 97429.01 97431.09 97394.93 97284.18 97077.80 97012.07 97306.41 97224.05 96992.22 97343.23 96944.29 97327.71 96973.13 97205.34 97176.47 96957.23 97012.45 97097.93 97270.59 96938.54 97335.53 96948.29 97346.40 96961.12 97293.35 97237.78 96988.85 97148.16 97351.15 97425.89 97446.65 97459.98 97419.08 97249.43 97122.70 97403.15 97488.85 97185.02 97596.61 97222.31 97630.51 97251.24 97597.47 97435.14 97355.95 96909.23 97128.47 97157.34 96925.14 97279.72 96896.30 97295.23 96944.22 97176.06 97258.41 96964.07 97029.80 97236.18 97346.93 97383.10 97381.02 97304.11 97131.07 97097.92 97423.78 97371.56 97168.13 97545.44 97170.32 97574.69 97237.84 97484.21 97465.68 97252.73 97307.95 97387.14 97549.47 97203.24 97582.51 97174.31 97548.61 97137.03 97440.86 97355.15 97074.71 97201.43 97371.08 97411.98 97398.66 97377.90 97303.16 97100.16 96940.86 97189.78 97245.36 96913.12 97298.41 96900.29 97287.54 96890.54 97222.60 97049.93 96964.46 98649.21 98305.38 97961.54 99857.70 99300.10 98942.26 98967.46 100386.53 100761.53 101136.53 101511.53 101886.53 101714.23 101339.23 100964.23 100589.23 98764.76 98739.57 99097.40 99655.00 98040.59 98415.47 98589.27 98506.74 98730.58 98402.35 99573.63 99098.89 98735.25 98930.49 98586.08 98578.75 100498.72 100873.72 101248.72 101623.72 101796.02 101421.02 101046.02 100671.02 100296.02 98781.46 98788.77 99133.25 98937.86 99301.56 99776.32 98605.05 98933.27 98709.44 98791.97 96651.36 96723.59 96868.87 96569.49 96866.51 96631.35 96560.88 96828.01 96823.66 96749.06 96754.54 96793.45 96625.91 96367.67 96714.81 96430.14 96672.71 96354.15 96727.84 96415.72 96487.91 96697.89 96335.24 96720.28 96376.72 96749.56 96389.69 96547.29 96778.17 96796.22 96800.34 96843.57 96771.94 96508.49 96709.17 96804.11 96627.50 96799.09 96802.15 96594.59 96354.80 96446.27 96602.41 96297.60 96675.27 96306.53 96630.56 96533.81 96325.53 96549.42 96722.78 96765.18 96782.23 96773.74 96633.67 96442.02 96681.05 96806.57 96508.86 96900.95 96543.19 96864.01 96719.61 96635.31 96580.26 96798.01 96795.29 96591.00 96864.54 96553.22 96738.17 96755.77 96441.90 96555.61 96721.90 96764.48 96747.43 96670.94 96471.37 96325.41 96608.53 96562.16 96350.89 96638.86 96345.41 96533.69 96524.67 96299.75 96738.49 96961.61 96359.79 96491.53 96571.25 96377.27 96600.14 96512.45 96358.24 96665.91 96742.06 96696.69 96713.49 96792.14 96748.33 96471.40 96654.12 96767.39 96566.56 96778.42 96711.87 96588.21 96536.76 96788.45 96701.74 96638.03 96692.52 96731.20 96440.35 96679.75 96798.47 96761.51 96744.71 96748.39 96597.34 96327.19 96589.54 96525.26 96448.73 96494.58 96568.11 96308.34 97356.81 97756.81 98156.81 98556.81 98956.81 99356.81 99756.81 100156.81 100556.81 100956.81 101356.81 101756.81 101708.81 101308.81 100908.81 100508.81 100108.81 99708.81 99308.81 98908.81 98508.81 98108.81 97708.81 97308.81 104065.46 104465.46 104865.46 105265.46 105665.46 106065.46 106465.46 106865.46 107265.46 107665.46 108065.46 108465.46 108417.47 108017.47 107617.47 107217.47 106817.47 106417.47 106017.47 105617.47 105217.47 104817.47 104417.47 104017.47 104385.01 104760.01 105135.01 105510.01 105682.31 105307.31 104932.31 104557.31 104182.31 103205.39 102737.89 102824.34 102743.55 102946.25 103027.04 102940.58 103408.09 102715.68 102705.18 102659.33 102799.52 103002.21 102862.02 102907.88 102918.37 103204.23 103334.05 103536.75 103406.93 104031.40 104406.40 104781.40 105156.40 105531.40 105359.09 104984.09 104609.09 104234.09 102731.80 102515.54 102082.05 101753.02 101643.88 101628.31 101572.27 101451.04 101300.80 101156.71 101023.31 100873.28 100667.26 100409.79 100183.70 100098.66 100170.22 100260.76 100198.41 99968.92 99721.99 99605.34 99633.97 99715.61 99762.91 99756.42 99716.67 99669.05 99624.08 99574.71 99501.28 99382.95 99549.70 99435.02 99830.64 99999.83 100126.01 100201.92 100251.04 100296.32 100345.28 100383.81 100381.10 100317.77 100233.11 100237.04 100406.04 100671.87 100854.66 100845.89 100738.49 100719.74 100870.15 101121.33 101363.62 101546.68 101689.03 101827.07 101976.84 102124.56 102234.13 102280.54 102311.31 102469.40 102844.66 103265.59 103427.72 103405.32 99074.29 99431.90 99140.70 99324.08 99202.22 99453.75 99396.55 99192.32 99183.08 99438.76 99640.72 99564.80 99387.88 99396.24 99623.92 99861.19 99923.98 99830.38 99733.83 99752.74 99896.75 100104.01 100306.06 100468.82 100592.26 100693.26 100791.59 100901.02 101028.78 101176.49 101337.97 101499.45 101640.59 101742.73 101809.06 101879.13 102023.75 102302.06 103449.44 103031.42 102699.45 102513.85 102432.11 102373.21 102282.02 102146.15 101983.05 101816.64 101663.67 101532.14 101420.95 101322.45 101221.52 101096.03 100927.27 100716.81 100506.81 100375.02 100381.72 100494.82 100563.72 100442.74 100176.17 100000.12 100078.99 100259.58 100223.43 99947.93 99782.00 99914.58 100090.71 100016.95 99768.42 99617.71 99664.36 99795.57 99064.47 99436.67 99305.54 99177.85 99486.52 99998.27 99867.06 99820.41 99971.11 100219.65 100293.41 100117.28 99984.69 100150.63 100426.13 100462.28 100281.68 100202.82 100378.86 100645.43 100766.41 100697.52 100584.41 100577.71 100709.51 100919.51 101129.97 101298.72 101424.22 101525.15 101623.64 101734.83 101866.36 102019.33 102185.74 102348.84 102484.72 102575.90 102634.81 102716.54 102902.15 103234.12 103652.14 100260.40 100635.40 101010.40 101385.40 101760.40 101588.09 101213.09 100838.09 100463.09 99689.22 99380.55 99508.28 99639.36 99267.15 99556.87 99065.98 98863.28 99354.17 99033.53 99374.52 99404.91 99526.78 99343.40 99634.60 99276.98 99109.51 99356.93 99171.83 98830.84 99637.71 99752.39 100259.37 100634.37 101009.37 101384.37 101556.67 101181.67 100806.67 100431.67 100056.67 103608.02 103630.42 103468.29 103047.36 102672.10 102514.01 102483.23 102436.83 102327.26 102179.53 102029.76 101891.72 101749.38 101566.32 101324.03 101072.85 100922.43 100941.18 101048.59 101057.35 100874.56 100608.73 100439.73 100435.80 100520.46 100583.80 100586.51 100547.98 100499.02 100453.74 100404.62 100328.71 100202.53 100033.34 99585.65 99703.97 99777.41 99826.77 99871.75 99919.37 99959.11 99965.61 99918.31 99836.67 99808.04 99924.69 100171.62 100401.11 100463.46 100372.91 100301.35 100386.39 100612.49 100869.96 101075.97 101226.01 101359.40 101503.49 101653.73 101774.96 101831.01 101846.57 101955.71 102284.74 102718.24 102934.50 102504.75 102226.45 102081.83 102011.76 101945.42 101843.28 101702.14 101540.66 101379.18 101231.48 101103.71 100994.28 100895.95 100794.96 100671.52 100508.76 100306.70 100099.44 99955.43 99936.53 100033.07 100126.68 100063.88 99826.62 99598.94 99590.58 99767.50 99843.42 99641.46 99385.77 99395.01 99599.24 99656.44 104284.57 104328.70 104200.38 103699.54 103741.53 104125.25 103779.39 103306.68 102714.32 102322.99 102254.34 102698.06 102367.67 102082.46 101675.86 101326.48 101242.49 101035.08 101612.85 101301.71 101153.41 100927.03 103377.10 103827.78 101689.33 103035.91 101750.01 101559.22 101276.83 100970.48 104196.19 103343.75 101135.56 102626.84 104281.89 100839.86 101554.77 101859.78 103381.44 104794.50 102267.58 101494.14 101669.39 101176.94 102690.97 104862.63 104406.22 101365.32 103065.27 103160.16 103868.38 103845.20 103950.91 103429.17 101100.16 104435.10 101595.65 103558.97 104486.40 101666.87 104809.26 104854.17 104011.78 101148.87 104153.68 104346.39 107517.22 104465.41 104096.95 105331.40 105487.77 107112.56 107138.67 108322.35 109055.18 108678.30 108703.40 104307.85 104007.89 103593.10 104257.77 107071.50 105690.27 106281.66 104334.84 102912.25 104452.89 103165.40 103269.28 106269.04 103211.82 105111.30 102908.23 102445.94 103273.45 105091.32 101997.26 107878.90 106293.82 106312.30 107907.94 106273.37 106091.00 103061.34 105034.90 105119.17 102171.31 102466.08 105005.06 101652.72 102154.56 102472.66 102536.53 102628.01 102570.75 102144.25 101527.02 102414.26 101628.92 105547.76 105473.58 105478.05 102479.77 101974.54 102447.72 103093.90 102942.08 103626.23 103386.43 103915.87 104217.40 104322.31 104632.95 104758.27 105060.00 105279.80 105563.19 105871.35 106145.67 106434.65 106736.77 106116.02 106414.92 106038.76 104999.28 106427.13 107026.84 107159.62 107514.32 107306.98 107848.92 107424.95 107583.23 108164.04 108165.62 108127.16 107806.98 107744.00 107344.21 107343.15 106855.20 106921.00 106405.77 106483.10 106749.03 106377.77 106027.67 105989.15 105562.97 107901.48 106139.72 105743.30 106778.70 105458.62 104999.19 105092.77 106561.24 106346.48 105679.44 106303.42 106855.82 106137.48 104547.25 105753.58 106983.68 107273.45 105351.49 104006.65 105271.86 104620.57 104545.73 104124.25 105903.82 106463.13 106067.43 107032.16 107371.83 105193.01 106760.40 104222.14 103807.91 106465.75 107085.05 105411.56 105037.43 104993.22 106150.61 105728.20 107110.91 107508.37 106633.88 104595.91 102643.35 107204.52 106798.77 102841.13 102887.41 105521.58 105151.95 104692.51 104145.06 107093.78 107865.20 108070.84 108385.73 108788.45 102543.59 102219.82 102728.19 103625.97 103962.74 104294.01 104033.66 104470.80 104689.00 105145.10 105263.43 105668.69 105638.68 106069.30 106121.03 106559.76 105683.71 106494.73 106998.68 106920.44 107437.58 107348.92 107877.76 107356.03 107604.55 107032.90 107279.63 106711.40 106950.94 106390.38 106616.82 106070.12 106274.85 107069.57 108092.17 105749.52 105924.96 104274.83 105507.28 105180.49 106983.44 106169.96 106220.81 105842.96 106213.63 105775.98 106201.30 105794.61 105289.35 106000.83 106395.03 105006.96 104670.80 105612.29 106840.11 105565.42 106904.84 106061.00 104530.68 105474.41 104856.23 106127.03 104200.36 105601.34 105604.92 103606.87 105864.25 105197.62 105261.73 104335.28 103927.37 106390.79 106803.18 103632.43 106438.33 106835.18 106018.01 105906.54 103233.26 103555.91 106382.34 102925.25 104634.37 106803.96 107143.29 103330.86 105595.33 106552.86 106906.58 107200.69 107299.93 107530.84 107723.26 107826.90 108161.17 108101.24 108601.24 108365.22 109012.70 108601.12 108888.04 108105.18 108458.97 108880.11 107630.83 107995.66 108115.65 107188.88 107773.41 108259.60 107717.79 107659.59 105100.68 104770.45 104822.98 107148.21 102701.30 103715.48 108531.73 108865.48 108286.06 109120.93 108807.20 106027.10 105672.73 106478.43 103620.74 107724.96 104684.94 104400.93 104137.05 106755.03 102428.05 108219.78 102192.30 103828.00 101897.29 105603.18 103375.64 105915.18 102240.59 102197.80 104435.89 104225.39 103886.53 107631.55 101953.08 103740.54 105631.46 105339.87 106116.70 102136.43 101641.36 109480.29 108852.47 108500.54 108272.76 108177.94 107766.89 107812.93 107395.76 107553.16 108044.28 108052.30 104890.92 103378.66 108979.22 101868.41 104693.80 105257.75 105660.25 105655.44 105288.26 106037.01 106046.03 105733.54 105057.57 105448.45 101904.19 107603.19 106306.82 104271.68 102516.63 104457.03 105755.33 105691.97 106413.70 102263.32 101784.82 104913.46 104622.00 104689.93 103650.30 104518.77 102669.92 103153.16 106124.84 106737.63 105330.89 108758.76 107845.67 105298.48 105826.00 105819.29 106256.38 104946.63 102061.20 105906.74 106218.79 105497.22 105879.25 102984.67 102499.82 104217.56 104505.56 105174.77 104792.32 105486.10 105082.79 105789.79 105389.53 106086.65 105702.93 106376.52 104656.75 106040.66 106298.90 105741.02 105833.77 105908.94 105367.47 105370.99 106043.28 105011.20 105800.50 106907.17 103893.18 104944.67 106343.01 105677.62 102941.25 104269.76 108119.51 102871.83 103329.68 107260.45 106707.54 106693.53 106709.79 105771.62 108395.69 105869.83 105950.33 105547.11 105188.13 105575.81 105503.40 104672.32 104994.99 104592.78 108103.29 106789.61 107308.57 105296.21 105080.56 102140.81 102453.04 102428.82 102658.95 103040.96 103083.73 103665.31 103559.76 104049.31 103869.26 104363.05 104523.09 104228.96 103708.60 102812.55 104838.24 104630.18 103688.82 102389.91 102206.34 103210.39 102819.79 108993.06 106078.23 106715.36 106809.35 102127.23 106849.54 106477.87 108305.14 104914.62 101916.66 101880.66 102142.82 109052.56 109102.33 109166.65 104535.46 103989.46 106678.88 107720.70 105991.80 105119.54 105247.73 102944.47 105427.03 104783.18 107065.81 105380.74 105821.02 104342.23 106473.33 103259.02 103487.22 104782.30 104856.44 106395.71 104115.49 106677.25 106010.53 105176.52 108044.16 105344.27 106570.48 108485.90 105077.22 105836.46 107786.73 106535.87 103530.44 104409.03 104671.88 106622.03 104215.75 103592.23 107171.28 106645.23 106592.64 106502.85 105008.83 105003.47 104231.20 104672.36 105581.98 103867.48 106787.61 105098.92 106790.94 103013.24 104099.53 107111.93 107490.85 105589.24 104530.25 108288.97 103627.16 108354.68 103390.93 105361.99 103667.65 108668.19 107519.28 106603.84 107553.63 103213.31 104460.54 106984.99 102419.11 106805.20 106348.27 108238.99 107359.25 104113.50 102133.58 104230.18 107736.83 107474.60 108020.99 104991.19 102180.60 107640.01 107904.79 106968.27 107483.84 103475.54 107537.05 104061.99 107948.77 102639.72 101875.10 109186.04 108109.14 101605.13 105053.85 106484.98 107174.88 102806.10 106667.52 105933.16 105523.50 105575.86 105525.14 107019.92 108440.89 107336.90 107340.53 107562.05 107067.43 107929.12 102670.04 105111.32 103627.29 102649.82 105436.55 105847.08 106443.92 106765.94 107025.55 107308.08 109558.60 106173.91 104432.20 107479.81 105357.32 101919.14 103734.53 104844.51 103297.10 105443.40 107475.46 103963.47 103356.12 104943.98 106104.69 104903.57 106773.34 103263.47 109248.19 103728.59 103146.92 107218.32 106661.23 104184.36 104932.79 108466.86 103752.20 102111.05 108730.46 104952.66 101745.02 102272.35 104883.61 103005.49 105031.04 105735.84 108833.06 107111.78 106276.08 102277.56 102204.77 104863.04 101644.87 106160.11 103365.00 104314.36 105718.26 105794.36 101743.76 104631.54 104133.36 106391.90 108768.15 105268.91 106079.70 105228.58 105180.70 105247.18 109201.85 104393.43 105203.32 103961.52 102507.08 102460.00 101537.98 108700.32 101797.93 106042.40 107865.97 101707.55 103029.57 103883.34 105215.23 106463.12 102368.81 106526.94 104877.15 102801.58 103124.13 101482.17 104564.25 108352.82 105368.20 104036.80 102816.53 103958.65 102012.43 103846.20 104754.54 108029.87 106091.69 108721.64 105492.26 104623.40 102115.63 107106.21 102933.15 103988.25 102967.40 102479.73 102520.69 101271.47 103475.20 103562.15 101184.52 100836.75 100795.60 101250.29 101080.02 101610.05 101163.07 101313.14 101527.11 101766.91 102259.79 103328.95 101741.50 102204.00 102625.90 103364.84 103766.91 104135.06 104623.92 103479.45 103656.28 104027.83 104119.88 101651.78 101432.17 103431.00 102531.31 103430.71 103846.98 104731.26 104549.08 101132.32 101820.49 104096.12 102968.39 101032.68 103921.19 104332.56 102572.73 102251.01 101241.61 103274.21 103830.79 102801.38 104338.22 102959.62 101275.01 101592.44 104736.24 102546.53 101623.52 101494.84 100893.68 100930.06 102352.66 104283.42 101602.09 102908.13 101541.50 101089.27 104474.08 101020.98 101039.00 100923.51 100999.91 104456.21 102472.70 102431.73 103514.15 101136.53 101223.47 103427.20 96816.76 96847.08 96638.46 96953.45 96657.64 96796.00 96427.85 96663.63 96453.53 96636.26 96421.53 96587.52 96527.67 96774.50 96887.12 96594.17 96813.28 96494.29 96573.31 96800.76 96439.27 96648.26 96926.87 96850.72 97037.65 96948.24 96634.91 96929.99 96606.59 96873.16 96872.51 97219.29 96899.89 96793.96 96765.86 96703.44 97099.39 96802.16 97031.13 96831.99 96756.55 96495.63 96821.76 96526.33 96531.10 97027.88 96816.53 96780.20 97100.15 97087.64 96952.55 97304.54 97258.16 97032.23 96978.79 97203.60 96977.78 97355.69 97328.88 96634.33 96849.40 97001.57 96615.40 97034.42 97162.20 96846.21 96498.44 96477.11 96612.60 96524.99 96537.80 96761.50 96809.81 97025.61 97254.60 97011.50 96869.35 96724.41 96952.49 96933.68 96924.74 96998.37 96751.71 96980.02 97104.48 96779.56 96627.58 96834.33 96930.87 96973.93 96763.58 96715.96 96478.40 97021.55 96711.97 96823.01 97143.79 96975.73 96813.39 96702.85 96819.63 97038.55 97196.07 97084.51 97025.82 96958.45 96740.40 96945.19 96657.74 96662.05 97144.29 97049.58 101546.51 101600.97 97732.46 97344.53 97357.95 97469.70 97403.98 97344.49 97347.04 97361.65 97746.94 97427.63 97689.70 100188.54 100055.73 100084.35 100174.84 97475.89 97423.36 97526.70 97513.38 97701.78 97667.85 97770.93 97474.19 97679.74 99585.32 97552.73 99394.80 99312.69 99439.22 97681.27 97421.54 97586.82 100788.77 100962.01 100754.46 100982.64 97771.97 97573.38 97641.70 97477.45 97296.53 97489.58 97686.93 97576.81 97599.59 97433.60 97591.50 97219.66 97792.88 97277.65 97462.60 98571.88 98789.23 98833.18 98584.20 98331.28 97502.82 97849.60 98557.65 98247.46 98326.34 97622.01 97566.40 97699.97 98450.63 98101.52 97835.12 97871.10 98099.14 99511.64 99073.30 99235.89 98895.38 99272.76 98969.54 99367.79 99676.49 99713.88 100046.23 100023.45 100377.81 100315.56 100680.08 100593.49 100962.91 100852.96 101234