<?xml version="1.0"?>
<VTKFile type="UnstructuredGrid" version="0.1" byte_order="LittleEndian">
  <UnstructuredGrid>
    <Piece NumberOfPoints="9927" NumberOfCells="40888">
      <Points>
        <DataArray type="Float32" NumberOfComponents="3" format="ascii">
          8.020285 3.125000 0.000000 7.479715 3.125000 0.000000 8.145285 3.125000 0.125000 7.354715 3.125000 0.125000 7.354715 3.125000 1.875000 8.145285 3.125000 1.875000 7.402970 2.935738 0.599931 7.402970 2.935738 1.349931 7.355156 3.143667 0.349931 7.386529 3.280366 0.349931 7.506453 3.436344 0.599931 7.506453 3.436344 1.349931 7.386529 3.280366 1.599931 7.355156 3.143667 1.599931 7.969924 3.125000 0.000000 7.479715 3.125000 2.000000 8.020285 3.125000 2.000000 7.530076 3.125000 2.000000 7.969924 3.125000 2.000000 4.500000 3.250000 0.000000 3.250000 3.250000 0.000000 4.625000 3.250000 0.125000 3.125000 3.250000 0.125000 3.125000 3.250000 1.875000 4.625000 3.250000 1.875000 4.625000 3.250000 1.599931 4.624487 3.277722 1.599931 4.580226 3.505257 1.349931 4.580226 3.505257 0.599931 4.624487 3.277722 0.349931 4.625000 3.250000 0.349931 4.537703 2.898823 0.349931 4.273668 2.614733 0.599931 4.273668 2.614733 1.349931 4.537703 2.898823 1.599931 4.392234 3.250000 0.000000 3.250000 3.250000 2.000000 4.500000 3.250000 2.000000 3.357766 3.250000 2.000000 4.392234 3.250000 2.000000 7.324886 2.996813 1.349931 7.324886 2.996813 0.599931 7.370241 2.974347 0.599931 7.370241 2.974347 1.349931 7.230296 3.149570 0.474931 7.318585 3.145396 0.438319 7.318585 3.145396 1.511542 7.230296 3.149570 1.474931 7.352863 3.294756 0.438319 7.271589 3.329497 0.474931 7.271589 3.329497 1.474931 7.352863 3.294756 1.511542 7.380960 3.419582 0.599931 7.445985 3.410899 0.599931 7.445985 3.410899 1.349931 7.380960 3.419582 1.349931 4.749402 3.282342 0.474931 4.670778 3.425748 0.599931 4.750000 3.250000 0.474931 4.648153 2.840294 0.474931 4.322239 2.632571 0.599931 4.322239 2.632571 1.349931 4.297020 2.626193 1.349931 4.297020 2.626193 0.599931 4.648153 2.840294 1.474931 4.570053 2.881680 1.511542 4.570053 2.881680 0.438319 4.661074 3.279075 1.511542 4.749402 3.282342 1.474931 4.750000 3.250000 1.474931 4.661074 3.279075 0.438319 4.670778 3.425748 1.349931 4.615288 3.453870 1.349931 4.615288 3.453870 0.599931 8.009336 3.201148 0.000000 7.977378 3.271127 0.000000 7.926999 3.329268 0.000000 7.862280 3.370860 0.000000 7.788466 3.392534 0.000000 7.711534 3.392534 0.000000 7.637720 3.370860 0.000000 7.573001 3.329268 0.000000 7.522622 3.271127 0.000000 7.490664 3.201148 0.000000 7.490664 3.048852 0.000000 7.522622 2.978873 0.000000 7.573001 2.920732 0.000000 7.637720 2.879140 0.000000 7.711534 2.857466 0.000000 7.788466 2.857466 0.000000 7.862280 2.879140 0.000000 7.926999 2.920732 0.000000 7.977378 2.978873 0.000000 8.009336 3.048852 0.000000 8.082785 3.125000 0.016747 8.128538 3.125000 0.062500 8.137689 3.047884 0.125000 8.115195 2.973731 0.125000 8.078667 2.905392 0.125000 8.029508 2.845492 0.125000 7.969608 2.796333 0.125000 7.901269 2.759805 0.125000 7.827116 2.737311 0.125000 7.750000 2.729715 0.125000 7.672884 2.737311 0.125000 7.598731 2.759805 0.125000 7.530392 2.796333 0.125000 7.470492 2.845492 0.125000 7.421333 2.905392 0.125000 7.384805 2.973731 0.125000 7.362311 3.047884 0.125000 7.362311 3.202116 0.125000 7.384805 3.276269 0.125000 7.421333 3.344608 0.125000 7.470492 3.404508 0.125000 7.530392 3.453667 0.125000 7.598731 3.490195 0.125000 7.672884 3.512689 0.125000 7.750000 3.520285 0.125000 7.827116 3.512689 0.125000 7.901269 3.490195 0.125000 7.969608 3.453667 0.125000 8.029508 3.404508 0.125000 8.078667 3.344608 0.125000 8.115195 3.276269 0.125000 8.137689 3.202116 0.125000 7.362311 3.047884 1.875000 7.384805 2.973731 1.875000 7.421333 2.905392 1.875000 7.470492 2.845492 1.875000 7.530392 2.796333 1.875000 7.598731 2.759805 1.875000 7.672884 2.737311 1.875000 7.750000 2.729715 1.875000 7.827116 2.737311 1.875000 7.901269 2.759805 1.875000 7.969608 2.796333 1.875000 8.029508 2.845492 1.875000 8.078667 2.905392 1.875000 8.115195 2.973731 1.875000 8.137689 3.047884 1.875000 8.137689 3.202116 1.875000 8.115195 3.276269 1.875000 8.078667 3.344608 1.875000 8.029508 3.404508 1.875000 7.969608 3.453667 1.875000 7.901269 3.490195 1.875000 7.827116 3.512689 1.875000 7.750000 3.520285 1.875000 7.672884 3.512689 1.875000 7.598731 3.490195 1.875000 7.530392 3.453667 1.875000 7.470492 3.404508 1.875000 7.421333 3.344608 1.875000 7.384805 3.276269 1.875000 7.362311 3.202116 1.875000 8.145285 3.125000 0.204545 8.145285 3.125000 0.284091 8.145285 3.125000 0.363636 8.145285 3.125000 0.443182 8.145285 3.125000 0.522727 8.145285 3.125000 0.602273 8.145285 3.125000 0.681818 8.145285 3.125000 0.761364 8.145285 3.125000 0.840909 8.145285 3.125000 0.920455 8.145285 3.125000 1.000000 8.145285 3.125000 1.079545 8.145285 3.125000 1.159091 8.145285 3.125000 1.238636 8.145285 3.125000 1.318182 8.145285 3.125000 1.397727 8.145285 3.125000 1.477273 8.145285 3.125000 1.556818 8.145285 3.125000 1.636364 8.145285 3.125000 1.715909 8.145285 3.125000 1.795455 7.402970 2.935738 0.674931 7.402970 2.935738 0.749931 7.402970 2.935738 0.824931 7.402970 2.935738 0.899931 7.402970 2.935738 0.974931 7.402970 2.935738 1.049931 7.402970 2.935738 1.124931 7.402970 2.935738 1.199931 7.402970 2.935738 1.274931 7.358054 3.073751 0.366126 7.370164 3.015605 0.406984 7.385338 2.972473 0.462876 7.397952 2.945248 0.528562 7.364731 3.213419 0.349931 7.499732 3.430965 0.530295 7.480759 3.414406 0.464814 7.452212 3.384936 0.407958 7.418403 3.340105 0.366261 7.506453 3.436344 1.274931 7.506453 3.436344 1.199931 7.506453 3.436344 1.124931 7.506453 3.436344 1.049931 7.506453 3.436344 0.974931 7.506453 3.436344 0.899931 7.506453 3.436344 0.824931 7.506453 3.436344 0.749931 7.506453 3.436344 0.674931 7.418403 3.340104 1.583600 7.452212 3.384937 1.541904 7.480758 3.414405 1.485047 7.499732 3.430966 1.419567 7.364731 3.213419 1.599931 7.397951 2.945248 1.421300 7.385338 2.972473 1.486986 7.370164 3.015605 1.542878 7.358054 3.073752 1.583735 7.956661 3.200218 0.000000 7.918471 3.266364 0.000000 7.859962 3.315460 0.000000 7.788189 3.341583 0.000000 7.711811 3.341583 0.000000 7.640038 3.315460 0.000000 7.581529 3.266364 0.000000 7.543339 3.200218 0.000000 7.530076 3.125000 0.000000 7.543339 3.049782 0.000000 7.581529 2.983636 0.000000 7.640038 2.934540 0.000000 7.711811 2.908417 0.000000 7.788189 2.908417 0.000000 7.859962 2.934540 0.000000 7.918471 2.983636 0.000000 7.956661 3.049782 0.000000 7.490664 3.201148 2.000000 7.522622 3.271127 2.000000 7.573001 3.329268 2.000000 7.637720 3.370860 2.000000 7.711534 3.392534 2.000000 7.788466 3.392534 2.000000 7.862280 3.370860 2.000000 7.926999 3.329268 2.000000 7.977378 3.271127 2.000000 8.009336 3.201148 2.000000 8.009336 3.048852 2.000000 7.977378 2.978873 2.000000 7.926999 2.920732 2.000000 7.862280 2.879140 2.000000 7.788466 2.857466 2.000000 7.711534 2.857466 2.000000 7.637720 2.879140 2.000000 7.573001 2.920732 2.000000 7.522622 2.978873 2.000000 7.490664 3.048852 2.000000 7.417215 3.125000 1.983253 7.371462 3.125000 1.937500 7.543339 3.200218 2.000000 7.581529 3.266364 2.000000 7.640038 3.315460 2.000000 7.711811 3.341583 2.000000 7.788189 3.341583 2.000000 7.859962 3.315460 2.000000 7.918471 3.266364 2.000000 7.956661 3.200218 2.000000 7.956661 3.049782 2.000000 7.918471 2.983636 2.000000 7.859962 2.934540 2.000000 7.788189 2.908417 2.000000 7.711811 2.908417 2.000000 7.640038 2.934540 2.000000 7.581529 2.983636 2.000000 7.543339 3.049782 2.000000 4.495072 3.328333 0.000000 4.480364 3.405431 0.000000 4.456110 3.480078 0.000000 4.422692 3.551096 0.000000 4.380636 3.617366 0.000000 4.330605 3.677842 0.000000 4.273390 3.731571 0.000000 4.209892 3.777705 0.000000 4.141112 3.815517 0.000000 4.068136 3.844410 0.000000 3.992113 3.863930 0.000000 3.914244 3.873767 0.000000 3.835756 3.873767 0.000000 3.757887 3.863930 0.000000 3.681864 3.844410 0.000000 3.608888 3.815517 0.000000 3.540108 3.777705 0.000000 3.476610 3.731571 0.000000 3.419395 3.677842 0.000000 3.369364 3.617366 0.000000 3.327308 3.551096 0.000000 3.293890 3.480078 0.000000 3.269636 3.405431 0.000000 3.254928 3.328333 0.000000 3.254928 3.171667 0.000000 3.269636 3.094569 0.000000 3.293890 3.019922 0.000000 3.327308 2.948904 0.000000 3.369364 2.882634 0.000000 3.419395 2.822158 0.000000 3.476610 2.768429 0.000000 3.540108 2.722295 0.000000 3.608888 2.684483 0.000000 3.681864 2.655590 0.000000 3.757887 2.636070 0.000000 3.835756 2.626233 0.000000 3.914244 2.626233 0.000000 3.992113 2.636070 0.000000 4.068136 2.655590 0.000000 4.141112 2.684483 0.000000 4.209892 2.722295 0.000000 4.273390 2.768429 0.000000 4.330605 2.822158 0.000000 4.380636 2.882634 0.000000 4.422692 2.948904 0.000000 4.456110 3.019922 0.000000 4.480364 3.094569 0.000000 4.495072 3.171667 0.000000 4.562500 3.250000 0.016747 4.608253 3.250000 0.062500 4.620891 3.171604 0.125000 4.608611 3.094066 0.125000 4.588292 3.018237 0.125000 4.560159 2.944948 0.125000 4.524519 2.875000 0.125000 4.481763 2.809161 0.125000 4.432359 2.748152 0.125000 4.376848 2.692641 0.125000 4.315839 2.643237 0.125000 4.250000 2.600481 0.125000 4.180052 2.564841 0.125000 4.106763 2.536708 0.125000 4.030934 2.516389 0.125000 3.953396 2.504109 0.125000 3.875000 2.500000 0.125000 3.796604 2.504109 0.125000 3.719066 2.516389 0.125000 3.643237 2.536708 0.125000 3.569948 2.564841 0.125000 3.500000 2.600481 0.125000 3.434161 2.643237 0.125000 3.373152 2.692641 0.125000 3.317641 2.748152 0.125000 3.268237 2.809161 0.125000 3.225481 2.875000 0.125000 3.189841 2.944948 0.125000 3.161708 3.018237 0.125000 3.141389 3.094066 0.125000 3.129109 3.171604 0.125000 3.129109 3.328396 0.125000 3.141389 3.405934 0.125000 3.161708 3.481763 0.125000 3.189841 3.555052 0.125000 3.225481 3.625000 0.125000 3.268237 3.690839 0.125000 3.317641 3.751848 0.125000 3.373152 3.807359 0.125000 3.434161 3.856763 0.125000 3.500000 3.899519 0.125000 3.569948 3.935159 0.125000 3.643237 3.963292 0.125000 3.719066 3.983611 0.125000 3.796604 
[...]
      <PointData>
        <DataArray type="Float32" Name="vonMisesStress" NumberOfComponents="1" format="ascii">
          665188.56 2743996.97 133451.04 3256957.33 3256957.33 133451.04 3339225.92 3339225.92 4048283.76 2996898.12 2501805.25 2501805.25 2996898.12 4048283.76 881574.95 2743996.97 665188.56 2726587.97 881574.95 8902093.60 3751488.22 9410791.38 3229400.55 3229400.55 9410791.38 9410791.38 8611595.91 8508853.41 8508853.41 8611595.91 9410791.38 9868046.43 6884324.74 6884324.74 9868046.43 8413424.40 3751488.22 8902093.60 3786333.02 8413424.40 3718633.92 3718633.92 2201024.46 2201024.46 4465727.67 3716057.33 3716057.33 4465727.67 3043074.16 1677733.40 1677733.40 3043074.16 2857875.21 2923391.86 2923391.86 2857875.21 9658485.94 7580341.10 9918379.81 8805705.07 5706666.87 5706666.87 7532844.06 7532844.06 8805705.07 7373999.48 7373999.48 10050222.04 9658485.94 9918379.81 10050222.04 7580341.10 9561411.55 9561411.55 901665.45 292370.21 2609401.62 299200.15 948081.06 0.00 2539065.92 2047097.22 785436.76 4608039.96 790228.36 4237861.97 2676927.09 1719149.54 3684716.91 1921127.87 1754137.67 0.00 1046678.09 215587.68 399398.54 0.00 209330.52 0.00 159517.24 835210.05 2291851.39 0.00 1958212.95 0.00 553132.34 1433616.62 4040571.38 2988280.02 3026000.31 3332526.77 1485125.42 5025930.72 2940456.01 3184617.03 2320208.59 951178.88 2962662.70 3033204.91 3217072.61 539076.16 2879547.63 0.00 0.00 164775.59 1166751.14 0.00 1485125.42 3332526.77 3026000.31 2988280.02 4040571.38 1433616.62 553132.34 0.00 1958212.95 0.00 2291851.39 835210.05 159517.24 0.00 209330.52 0.00 1166751.14 164775.59 0.00 0.00 2879547.63 539076.16 3217072.61 3033204.91 2962662.70 951178.88 2320208.59 3184617.03 2940456.01 5025930.72 133451.04 133451.04 133451.04 133451.04 133451.04 133451.04 133451.04 133451.04 133451.04 133451.04 133451.04 133451.04 133451.04 133451.04 133451.04 133451.04 133451.04 133451.04 133451.04 133451.04 133451.04 3339225.89 3339225.89 3339225.89 3339225.89 3339225.89 3339225.89 3339225.89 3339225.89 3339225.89 4382537.72 5120451.94 3320160.20 1656457.71 4493538.94 1470174.65 2356254.86 2028108.51 3486019.68 2501805.25 2501805.25 2501805.25 2501805.25 2501805.25 2501805.25 2501805.25 2501805.25 2501805.25 3486048.28 2027984.71 2356346.36 1470231.06 4493538.94 1656424.10 3320159.35 5120454.88 4382555.26 0.00 1285026.74 1317208.48 1253411.23 996821.58 1997145.60 663389.08 3161320.40 2726587.97 1837976.27 4029583.86 2371625.75 2225771.18 1566449.38 822308.25 585961.24 2225216.83 4608039.96 785436.76 2047097.22 2539065.92 0.00 948081.06 299200.15 2609401.62 292370.21 901665.45 215587.68 1046678.09 0.00 1754137.67 1921127.87 3684716.91 1719149.54 2676927.09 4237861.97 790228.36 3000455.09 3085806.78 3161320.40 663389.08 1997145.60 996821.58 1253411.23 1317208.48 1285026.74 0.00 2225216.83 585961.24 822308.25 1566449.38 2225771.18 2371625.75 4029583.86 1837976.27 8135854.56 9109331.60 9061123.44 6835066.58 9605340.22 8442744.66 7100422.41 6924009.71 6737764.78 5458385.19 6376865.28 4515158.38 4972329.39 6894780.33 4307726.38 4403903.10 5486271.03 2758709.67 2997930.77 5047685.63 4199423.89 2861022.41 3641649.87 1597936.61 5336256.91 3509886.49 4439196.34 3194259.62 2804536.17 4804939.82 5783574.15 3602627.64 4486961.55 4969519.21 3342009.35 5596298.60 6290533.05 5604823.80 6553239.15 6865740.60 7007705.64 7497556.07 6857496.41 6522599.06 9369349.92 7537499.69 8554120.93 9176425.62 9156577.46 8887569.31 9732804.45 9169103.30 9252046.90 8100230.43 8495203.30 7763294.83 7945448.33 6557074.96 5577962.12 8113330.54 6456418.08 5210453.00 7530450.71 5065640.60 4924471.66 5616720.34 6562655.80 4671312.63 3504613.10 5524840.04 2343855.15 2544869.82 3640878.64 3303340.49 3302665.42 1758323.08 4799170.47 2975518.87 4816689.12 1058573.87 2946434.69 1457445.16 4820978.12 2580983.94 3284036.52 3874851.64 5104921.45 4999870.21 2198672.60 5434259.59 4243169.44 3157824.16 4192661.33 6150340.89 6305428.95 4481072.46 7490085.03 6696570.44 5358948.37 8486652.08 8834201.99 7891901.11 7983471.88 8325294.83 9449495.88 8594236.17 9476068.25 8627609.52 4816689.12 2975518.87 4799170.47 1758323.08 3302665.42 3303340.49 3640878.64 2544869.82 2343855.15 5524840.04 3504613.10 4671312.63 6562655.80 5616720.34 4924471.66 5065640.60 7530450.71 5210453.00 6456418.08 8113330.54 5577962.12 6557074.96 7945448.33 7763294.83 8495203.30 8100230.43 9252046.90 9169103.30 9732804.45 8627609.52 9476068.25 8594236.17 9449495.88 8325294.83 7983471.88 7891901.11 8834201.99 8486652.08 5358948.37 6696570.44 7490085.03 4481072.46 6305428.95 6150340.89 4192661.33 3157824.16 4243169.44 5434259.59 2198672.60 4999870.21 5104921.45 3874851.64 3284036.52 2580983.94 4820978.12 1457445.16 2946434.69 1058573.87 9410791.38 9410791.38 9410791.38 9221978.57 9863653.42 7990163.66 9136253.12 8508853.41 8508853.41 8508853.41 8508853.41 8508853.41 8508853.41 8508853.41 8508853.41 8508853.41 9136251.81 7990212.67 9863645.02 9221981.35 9410791.38 9410791.38 8074027.76 8723910.09 7973522.42 9795344.78 7563075.75 6907512.10 7409325.15 5922814.15 8086910.11 7510512.47 6884324.74 6884324.74 6884324.74 6884324.74 6884324.74 6884324.74 6884324.74 6884324.74 6884324.74 7510647.43 8086924.54 5922583.37 7410059.57 6908381.00 7563675.29 9795344.78 7973522.42 8723910.09 8074027.76 6331308.35 7993602.10 7423494.54 6537885.34 8447362.60 7262736.04 5514666.27 5817207.82 6733565.91 5570102.65 3784453.67 5066560.15 5013533.42 3373994.10 5718465.62 5998372.89 3068158.97 4151875.60 5275720.05 3629708.98 4270482.03 2971528.48 3751420.88 5276830.97 2499495.43 2826185.31 5453414.89 5364742.54 5233884.31 7394053.81 5963608.96 4900766.53 7017565.29 8024009.18 6378698.30 6217833.72 8814106.79 8484491.72 8092277.31 10043748.12 1597936.61 3641649.87 2861022.41 4199423.89 5047685.63 2997930.77 2758709.67 5486271.03 4403903.10 4307726.38 6894780.33 4972329.39 4515158.38 6376865.28 5458385.19 6737764.78 6924009.71 7100422.41 8442744.66 9605340.22 6835066.58 9061123.44 9109331.60 8135854.56 9176425.62 8554120.93 7537499.69 9369349.92 6522599.06 6857496.41 7497556.07 7007705.64 6865740.60 6553239.15 5604823.80 6290533.05 5596298.60 3342009.35 4969519.21 4486961.55 3602627.64 5783574.15 4804939.82 2804536.17 3194259.62 4439196.34 3509886.49 5336256.91 3490613.90 2987688.07 3524399.90 2873140.78 3458659.19 5101130.06 4997104.57 4227568.56 4276705.38 6255109.84 5192806.27 6134460.66 7571881.02 6105809.99 7811593.30 5567835.06 6076702.02 8242301.61 7436643.87 7572386.43 7788154.95 6424971.50 10060079.23 8259075.29 8552413.02 7999471.15 6107158.27 7625603.65 8450032.64 4856950.99 6222549.40 3953347.87 4878625.88 5812633.39 3427789.69 5344532.47 4673677.08 3290711.62 2967811.09 5212024.38 4548564.57 4327131.08 8413424.40 8413424.40 8413424.40 8413424.40 8413424.40 8413424.40 8413424.40 8413424.40 8413424.40 8413424.40 8413424.40 8413424.40 8413424.40 8413424.40 8413424.40 8413424.40 8413424.40 8413424.40 8413424.40 8413424.40 8413424.40 8413424.40 8413424.40 8413424.40 881574.95 881574.95 881574.95 881574.95 881574.95 881574.95 881574.95 881574.95 881574.95 881574.95 881574.95 881574.95 881574.95 881574.95 881574.95 881574.95 881574.95 881574.95 881574.95 881574.95 881574.95 881574.95 881574.95 881574.95 3718633.91 3718633.91 3718633.91 3718633.91 3718633.91 3718633.91 3718633.91 3718633.91 3718633.91 4622045.05 3812663.83 2188944.56 2315923.33 2315923.33 2188944.56 3812688.56 4622054.21 3114598.47 3176849.70 5239979.96 4851236.47 4851236.47 5239979.96 3176849.70 3114598.47 4072734.87 3080757.29 3080761.62 4072755.26 2857875.21 2857875.21 2857875.21 2857875.21 2857875.21 2857875.21 2857875.21 2857875.21 2857875.21 4804912.92 5019216.90 4264729.86 4499157.13 3545888.72 5290255.59 4728432.52 4680016.68 6656482.99 7242962.19 6662803.88 5399208.39 7721675.87 6192812.02 8151326.04 7082954.67 9697828.67 8968332.78 11620098.28 9805807.44 11607616.88 9410391.43 11413739.59 9743855.25 11808075.00 12102397.06 11633556.23 12521538.31 11164884.34 10693092.70 10772211.78 8261096.66 8402998.78 8832691.37 9692571.11 8173262.32 10777983.46 10468186.20 11320338.46 12206847.24 10796360.05 11616609.75 10071855.23 9977708.37 9867633.76 9683419.79 9659772.34 10556318.41 9643568.54 10883625.24 8363640.82 9484760.31 6786254.17 8311374.54 6134792.64 7977851.40 7732717.58 6127899.26 5354980.96 7010443.21 6762945.68 5812276.92 6279046.93 5157256.71 3675893.27 3871860.10 2812015.25 5012374.61 10262053.66 8649669.87 8291169.03 9618735.85 9194654.84 7781158.30 11256430.56 9861205.20 9507911.09 10170500.40 10648633.94 12818154.65 9933349.78 11210957.94 10122815.23 12031696.48 11497474.18 11811318.37 10623471.70 10742896.61 9182759.60 10406360.25 8406513.59 10182164.55 9351188.23 7991051.35 8360458.36 6856588.75 6005176.73 7043231.43 6400091.04 6348973.89 7761458.89 5488816.82 6356767.43 5461855.52 5230404.70 5420254.61 5267567.13 3541447.71 5308218.70 3698432.59 5658152.17 4858209.64 6238532.00 7377886.11 6341596.39 7502926.11 6566867.09 6212030.48 8105346.91 8039447.91 8990618.21 10374179.84 8485204.36 10501866.02 8963457.49 11055350.25 9971275.58 12265599.01 10589512.22 12166958.97 9490188.73 10304035.68 10323414.71 10739792.19 11907959.34 8420352.90 9409046.51 9906824.88 9449768.85 9861345.26 6683112.63 8096395.55 6449691.48 7868771.43 7162822.42 8687482.56 8863211.64 6807945.39 7724805.96 7868771.43 6449691.48 8096395.55 6683112.63 9861345.26 9449768.85 9906824.88 9409046.51 8420352.90 11907959.34 10739792.19 10323414.71 10304035.68 9490188.73 12166958.97 10589512.22 12265599.01 9971275.58 11055350.25 8963457.49 10501866.02 8485204.36 10374179.84 8990618.21 8039447.91 8105346.91 6212030.48 6566867.09 7502926.11 6341596.39 7377886.11 6238532.00 4858209.64 5658152.17 3698432.59 5308218.70 3541447.71 5267567.13 5706666.87 5706666.87 5706666.87 5706666.87 5706666.87 5706666.87 5706666.87 5706666.87 5706666.87 7725249.77 6807892.95 8862836.98 8688903.14 7163035.26 7029969.52 10064464.11 10064464.11 7029969.52 8305224.32 9108628.77 9194654.84 9618735.85 8291169.03 8649669.87 10262053.66 9502785.24 9664729.58 9108628.77 8305224.32 8832677.95 8403028.97 7580341.06 7580341.06 7580341.06 7580341.06 7580341.06 7580341.06 7580341.06 7580341.06 7580341.06 5012374.61 2812015.25 3871860.10 3675893.27 5157256.71 6279046.93 5812276.92 6762945.68 7010443.21 5354980.96 6127899.26 7732717.58 7977851.40 6134792.64 8311374.54 6786254.17 9484760.31 8363640.82 10883625.24 9643568.54 10556318.41 9659772.34 9683419.79 9867633.76 9977708.37 10071855.23 11616609.75 10796360.05 12206847.24 11320338.46 10468186.20 10777983.46 8173262.32 9692571.11 8261096.66 10772211.78 10693092.70 11164884.34 12521538.31 11633556.23 12102397.06 11808075.00 9743855.25 11413739.59 9410391.43 11607616.88 9805807.44 11620098.28 8968332.78 9697828.67 7082954.67 8151326.04 6192812.02 7721675.87 5399208.39 6662803.88 7242962.19 6656482.99 4680016.68 4728432.52 5290255.59 3545888.72 4499157.13 4264729.86 5019216.90 4804912.92 5420254.61 5230404.70 5461855.52 6356767.43 5488816.82 7761458.89 6348973.89 6400091.04 7043231.43 6005176.73 6856588.75 8360458.36 7991051.35 9351188.23 10182164.55 8406513.59 10406360.25 9182759.60 10742896.61 10623471.70 11811318.37 11497474.18 12031696.48 10122815.23 11210957.94 9933349.78 12818154.65 10648633.94 10170500.40 9507911.09 9861205.20 11256430.56 7781158.30 8745.54 357926.27 0.00 1639662.34 2380312.20 2075516.15 884613.63 1201975.45 293561.42 3059387.73 1762769.86 2391347.44 1762345.48 1239702.11 1706874.84 3477687.62 3195711.79 3364201.06 4095502.04 2994681.49 2807628.09 3100306.89 0.00 0.00 1540978.14 614260.13 2785605.43 2859020.30 3965572.53 4577592.21 2076532.21 0.00 4302805.76 2484926.01 0.00 1686510.61 1419235.21 2382629.91 2443227.12 1336218.85 970240.87 2487497.01 2349924.16 2519403.02 2022910.47 0.00 434117.25 4497802.57 1438301.62 0.00 2443215.19 0.00 2308074.81 562103.79 2994210.40 470733.07 1794004.31 6379.57 1041228.34 3433916.21 62424.84 321374.14 0.00 3880882.16 577292.26 4269904.08 279922.04 3154091.18 4774861.39 2936817.13 3676179.77 256810.23 0.00 363835.02 0.00 341248.26 325699.59 2555032.65 628006.01 2241566.43 432984.56 0.00 2164856.40 2072440.52 0.00 1986270.81 1320281.38 0.00 3169724.61 325699.59 0.00 2302089.43 1264012.15 2794673.38 2404145.69 203310.72 3703157.45 0.00 0.00 0.00 325699.59 290607.97 3677045.88 1968068.23 536234.13 134911.86 3311097.08 2100968.18 0.00 2015196.08 2755673.24 3164051.57 2093799.72 2627705.26 4953465.03 2903984.54 2667941.35 2996586.51 3978699.34 0.00 325699.59 177631.60 4280536.37 1464995.75 3203919.86 1041565.74 2517297.72 2171744.29 2715337.47 1510075.26 1133473.96 3335943.01 1362296.53 1960009.61 0.00 403161.79 0.00 13255.89 622831.41 2425720.61 661605.17 2331114.91 0.00 0.00 2917925.08 2966629.20 1067004.76 138747.67 367693.82 994693.72 2728566.90 899590.86 0.00 1866527.15 0.00 957415.99 554199.75 0.00 1307777.93 1265748.78 316540.32 2860086.95 29255.92 1101696.04 446451.39 586462.10 782462.11 0.00 1256643.70 287435.25 889017.96 0.00 1387270.99 3036058.46 272373.47 0.00 1320018.98 0.00 933228.43 0.00 0.00 0.00 0.00 1320026.41 0.00 583817.49 0.00 3156307.96 1737192.60 959788.94 0.00 1735713.59 1109330.51 0.00 0.00 0.00 0.00 0.00 248827.15 1414325.46 1540238.02 915584.43 2709378.89 322038.78 776592.38 760468.09 0.00 0.00 353025.88 0.00 2058051.78 1307022.57 2735469.70 3092931.09 3537982.86 2388462.54 889132.48 325699.59 2249752.84 550501.18 3265196.55 0.00 0.00 241334.49 294160.34 0.00 1402298.22 1401532.56 4424772.36 4444731.02 2944469.05 2760388.04 4183906.77 3897799.66 543280.06 438547.76 2937007.79 2800282.40 3240145.36 1482507.34 1756167.77 0.00 3229178.59 0.00 0.00 0.00 943845.79 1777528.23 2563433.58 3215226.29 2366066.86 2687971.49 1080149.89 655277.13 616380.76 0.00 1149781.54 9025.73 935894.31 788667.95 0.00 1913181.65 0.00 590873.75 679798.90 2592947.13 1996826.24 537554.14 831621.18 2144110.80 1777703.60 2723385.82 0.00 0.00 2166467.41 2030818.30 2451562.72 1360856.64 3226812.72 746863.89 3592610.79 0.00 450946.49 1074646.67 2061863.98 2359722.57 2098323.11 0.00 2897975.13 1895766.91 1634855.42 3986917.39 25175.46 580525.94 673047.09 3391632.64 671307.00 0.00 862256.90 282371.97 1692477.88 992917.84 730271.27 0.00 4186535.83 3943891.20 1564482.63 2815566.00 3930115.03 352884.32 1685718.19 1704118.05 1268702.73 0.00 1536294.77 0.00 2105957.47 0.00 778696.62 1252151.17 73829.08 746767.33 1329964.52 0.00 1472219.92 138040.63 103506.72 1578510.18 0.00 1414459.83 1187936.91 743135.06 1512754.66 99195.08 250342.41 0.00 667514.28 1699050.67 1784961.42 692185.46 2009523.79 0.00 2889542.12 3695120.39 535183.52 0.00 0.00 192793.15 0.00 337518.31 0.00 157452.12 2875508.27 555441.27 2201674.43 545792.49 37460.77 699930.33 717776.68 698549.62 2493825.06 4175640.81 4249343.53 29572.56 1048118.90 308116.80 4674635.55 3967264.30 809186.26 0.00 1159949.79 0.00 2332765.09 1514389.13 0.00 619915.15 1100421.60 2935626.97 2822151.23 865562.33 1161996.49 0.00 0.00 0.00 760568.13 0.00 0.00 1018972.50 155221.86 308037.10 2398161.36 2605842.15 0.00 1843166.97 2349489.20 1104858.33 1372807.96 3691829.01 3586250.58 3556035.47 1720330.40 3316516.81 1168654.95 1363185.46 2156829.75 1725615.33 1804075.99 1151011.64 1529074.81 1901481.92 1733308.07 260915.18 3564396.27 1955239.17 2694764.86 1051479.89 0.00 2863107.04 2195931.73 3180218.89 860900.24 4219788.53 720574.00 0.00 728698.99 0.00 1667730.18 2077412.73 1742859.66 3679327.61 1777913.99 2031008.62 1411377.40 2478177.05 1708912.18 2093007.19 2065925.46 2666110.88 4554957.30 2287067.11 2714292.25 2846051.08 1820197.17 2484222.70 2005708.53 853398.33 3519253.79 211034.99 4281767.32 1540589.90 4444789.34 3336664.69 2763544.87 2527955.30 2257814.18 3004204.25 3897044.22 1658228.74 2844788.23 4532238.82 3468585.21 1919747.12 2714652.73 3248502.37 3108774.07 480127.70 2070878.60 2784619.30 0.00 2019857.02 1594919.68 3289265.08 2471191.67 0.00 1558475.62 66075.14 0.00 323287.95 0.00 0.00 1487559.21 1615179.24 0.00 1655254.23 1695879.76 725624.94 1389864.60 0.00 216008.40 934496.08 3694138.04 2836483.90 2990959.74 4137571.48 3778932.50 2737361.57 4109424.41 927477.58 1916658.72 1345169.04 3260601.55 0.00 2461071.43 2766679.36 0.00 2840140.75 1091726.98 933171.84 2573447.47 2783478.91 3479196.82 3401590.46 3294385.24 0.00 1467842.42 324446.82 0.00 3845494.16 1765084.67 2203340.38 324444.99 2629925.51 2790581.69 5057089.93 2116225.75 324364.90 325685.99 0.00 1888043.33 1785804.69 1671728.87 1415361.16 1973242.29 854519.57 3262572.26 2044810.07 2718296.46 3139317.90 322917.84 891636.34 3484823.03 0.00 2558281.11 3542751.70 1510946.64 126519.01 3252186.82 894629.86 2164569.73 2434570.03 2324930.55 2835424.27 0.00 0.00 0.00 2144567.45 0.00 0.00 0.00 0.00 1327022.39 0.00 0.00 387808.18 1048059.00 1777162.93 2534268.13 697319.26 323393.79 2532723.35 641605.57 636425.13 2013795.77 3091408.56 2352714.23 2941818.88 359515.42 0.00 893400.53 1073955.35 2891231.73 0.00 440123.67 1238285.43 3938639.03 1186805.26 2988794.69 0.00 1068761.16 0.00 3083021.67 857539.12 1193852.36 929017.98 0.00 3535770.32 3584586.49 623270.14 4834546.88 0.00 0.00 345931.24 1460822.17 965483.27 2981058.46 4000024.48 0.00 0.00 2534232.62 909880.11 3237365.40 1065785.51 454651.26 1868204.90 1240849.04 2463862.27 341854.95 661792.68 0.00 1673828.39 4668361.43 0.00 1780402.08 3137926.95 4728317.92 0.00 2050054.49 3273573.13 315716.71 0.00 0.00 0.00 978831.51 127188.56 0.00 1112039.34 1710641.22 0.00 0.00 81712.78 2908484.83 260023.11 1945148.01 2412296.98 209973.42 0.00 1675307.87 1573386.48 0.00 0.00 0.00 3555106.07 522268.02 578237.44 3561811.87 1412771.58 0.00 2938296.67 2699484.81 4167055.36 529165.03 1165391.86 1857305.42 565784.48 2247623.11 1029319.52 3575553.89 4658918.21 1526121.21 2742739.91 4697790.18 0.00 959358.82 3731360.84 652496.80 0.00 1400886.85 2883581.62 531896.91 3026274.66 5110242.92 3975722.62 451699.51 1555257.91 16931.21 4808843.21 0.00 236845.67 1632375.38 4796129.44 3084345.45 3590489.54 2272351.24 0.00 3129962.90 1686178.01 383393.21 665402.00 3401411.46 820084.47 1439336.76 2804380.02 1106841.73 78242.44 3624543.51 468584.36 459359.58 0.00 445628.44 2725234.44 0.00 1185365.23 2100902.71 4319385.16 2808306.23 1041090.04 3579206.99 2723154.49 0.00 2748838.05 2688465.49 2444757.58 589524.04 437368.22 892902.86 341714.23 1964439.85 2749103.84 4038343.14 3565454.56 3386786.93 1346214.02 0.00 70487.51 4159598.21 3938193.24 1255391.51 2038220.75 0.00 0.00 0.00 1101913.50 3211173.16 1049690.96 2286798.83 557654.01 2982055.09 4834089.21 3177689.08 2800096.74 241153.30 2316831.52 0.00 1727619.94 2930473.09 1905584.18 4386915.45 3389834.89 1812926.96 3719871.54 2670051.33 3036155.70 2471085.48 1070213.93 3429291.12 0.00 3376015.67 521621.41 669254.18 0.00 688633.37 2282874.80 222075.32 430336.85 948151.18 1443308.92 1590879.94 2800963.89 2384832.08 0.00 2418107.85 2811180.09 1985175.51 0.00 1828711.07 4523149.42 1303853.31 1995051.83 1447021.46 3112920.71 453742.94 585615.16 656262.93 1533665.65 2395099.72 2207446.63 323817.52 1423237.66 1770786.77 1657849.62 3394930.90 2909007.45 296503.19 1605475.30 1036313.16 2748871.89 4075129.96 3808029.71 3176579.87 217169.17 3012906.10 1631552.84 2938485.73 4161860.38 48814.86 5123012.52 2350139.17 2173207.65 4278262.87 758818.47 241153.30 2800096.74 1727619.94 2930473.09 2316831.52 0.00 9029475.90 9115453.94 5321044.63 8425652.27 7525762.57 3123451.51 3436266.05 7567735.52 4869278.36 4276515.06 3442293.11 4469912.83 3496559.38 3516647.01 8215028.30 2295517.33 6755649.31 3924896.31 5186325.01 8534230.11 2392685.77 8039044.09 9198131.23 7269566.94 4255930.87 5866363.85 3120875.06 8968892.65 2992535.57 2326775.14 2991667.02 7709808.24 3468769.40 7963050.06 2939911.41 4269644.06 8625344.47 7238867.81 7329572.62 7778465.57 3243395.68 2411612.59 3492277.11 6323778.02 5339183.74 7102367.50 3672062.49 3033246.17 8457207.49 8984354.22 1613697.76 9265934.39 8233001.70 4802561.64 5550376.67 6962377.27 7115861.47 7592640.44 10084602.03 3032820.54 7494390.14 4959229.67 3108348.97 2241715.